 Entering Gaussian System, Link 0=g09
 Initial command:
 /usr/local/gaussian09d01/g09/l1.exe "/scr/Gau-40683.inp" -scrdir="/scr/"
 Entering Link 1 = /usr/local/gaussian09d01/g09/l1.exe PID=     40684.
  
 Copyright (c) 1988,1990,1992,1993,1995,1998,2003,2009,2013,
            Gaussian, Inc.  All Rights Reserved.
  
 This is part of the Gaussian(R) 09 program.  It is based on
 the Gaussian(R) 03 system (copyright 2003, Gaussian, Inc.),
 the Gaussian(R) 98 system (copyright 1998, Gaussian, Inc.),
 the Gaussian(R) 94 system (copyright 1995, Gaussian, Inc.),
 the Gaussian 92(TM) system (copyright 1992, Gaussian, Inc.),
 the Gaussian 90(TM) system (copyright 1990, Gaussian, Inc.),
 the Gaussian 88(TM) system (copyright 1988, Gaussian, Inc.),
 the Gaussian 86(TM) system (copyright 1986, Carnegie Mellon
 University), and the Gaussian 82(TM) system (copyright 1983,
 Carnegie Mellon University). Gaussian is a federally registered
 trademark of Gaussian, Inc.
  
 This software contains proprietary and confidential information,
 including trade secrets, belonging to Gaussian, Inc.
  
 This software is provided under written license and may be
 used, copied, transmitted, or stored only in accord with that
 written license.
  
 The following legend is applicable only to US Government
 contracts under FAR:
  
                    RESTRICTED RIGHTS LEGEND
  
 Use, reproduction and disclosure by the US Government is
 subject to restrictions as set forth in subparagraphs (a)
 and (c) of the Commercial Computer Software - Restricted
 Rights clause in FAR 52.227-19.
  
 Gaussian, Inc.
 340 Quinnipiac St., Bldg. 40, Wallingford CT 06492
  
  
 ---------------------------------------------------------------
 Warning -- This program may not be used in any manner that
 competes with the business of Gaussian, Inc. or will provide
 assistance to any competitor of Gaussian, Inc.  The licensee
 of this program is prohibited from giving any competitor of
 Gaussian, Inc. access to this program.  By using this program,
 the user acknowledges that Gaussian, Inc. is engaged in the
 business of creating and licensing software in the field of
 computational chemistry and represents and warrants to the
 licensee that it is not a competitor of Gaussian, Inc. and that
 it will not use this program in any manner prohibited above.
 ---------------------------------------------------------------
  

 Cite this work as:
 Gaussian 09, Revision D.01,
 M. J. Frisch, G. W. Trucks, H. B. Schlegel, G. E. Scuseria, 
 M. A. Robb, J. R. Cheeseman, G. Scalmani, V. Barone, B. Mennucci, 
 G. A. Petersson, H. Nakatsuji, M. Caricato, X. Li, H. P. Hratchian, 
 A. F. Izmaylov, J. Bloino, G. Zheng, J. L. Sonnenberg, M. Hada, 
 M. Ehara, K. Toyota, R. Fukuda, J. Hasegawa, M. Ishida, T. Nakajima, 
 Y. Honda, O. Kitao, H. Nakai, T. Vreven, J. A. Montgomery, Jr., 
 J. E. Peralta, F. Ogliaro, M. Bearpark, J. J. Heyd, E. Brothers, 
 K. N. Kudin, V. N. Staroverov, T. Keith, R. Kobayashi, J. Normand, 
 K. Raghavachari, A. Rendell, J. C. Burant, S. S. Iyengar, J. Tomasi, 
 M. Cossi, N. Rega, J. M. Millam, M. Klene, J. E. Knox, J. B. Cross, 
 V. Bakken, C. Adamo, J. Jaramillo, R. Gomperts, R. E. Stratmann, 
 O. Yazyev, A. J. Austin, R. Cammi, C. Pomelli, J. W. Ochterski, 
 R. L. Martin, K. Morokuma, V. G. Zakrzewski, G. A. Voth, 
 P. Salvador, J. J. Dannenberg, S. Dapprich, A. D. Daniels, 
 O. Farkas, J. B. Foresman, J. V. Ortiz, J. Cioslowski, 
 and D. J. Fox, Gaussian, Inc., Wallingford CT, 2013.
 
 ******************************************
 Gaussian 09:  ES64L-G09RevD.01 24-Apr-2013
                 6-Feb-2020 
 ******************************************
 %chk=sn2_MO.chk
 %nproc=4
 Will use up to    4 processors via shared memory.
 %mem=1000MW
 ----------------------------------------------------------------------
 #p HF/6-31G guess=read scf=(xqc,maxcon=128,maxcyc=512,conver=8) force 
 IOp(1/10=10) IOp(1/18=10) IOp(2/15=3) IOp(2/12=1)
 ----------------------------------------------------------------------
 1/10=10,18=10,30=1,38=1/1,3;
 2/12=1,15=3,17=6,18=5,40=1/2;
 3/5=1,6=6,11=9,16=1,25=1,30=1,71=1,116=-2/1,2,3;
 4/5=1/1;
 5/5=2,6=8,7=512,8=3,13=1,38=6,85=128/2,8;
 6/7=2,8=2,9=2,10=2,28=1/1;
 7/29=1/1,2,3,16;
 1/10=10,18=10,30=1/3;
 99//99;
 Leave Link    1 at Thu Feb  6 17:46:55 2020, MaxMem=  1048576000 cpu:         0.2
 (Enter /usr/local/gaussian09d01/g09/l101.exe)
 ----------------------------
 force calculation: 1 0 0 0 0
 ----------------------------
 Symbolic Z-matrix:
 Charge = -1 Multiplicity = 1
 C                    0     0.06103   0.00034  -3.4612 
 H                    0    -0.91519  -0.11937  -3.02796 
 H                    0     0.57189  -0.94571  -3.43721 
 H                    0     0.59515   0.7008   -2.8455 
 O                    0     0.01119   0.40526  -4.86975 
 H                    0    -0.43016   1.2412   -4.97051 
 F                    0    -0.11105  -0.25817  -0.86423 
 
 NAtoms=      7 NQM=        7 NQMF=       0 NMMI=      0 NMMIF=      0
                NMic=       0 NMicF=      0.
                    Isotopes and Nuclear Properties:
 (Nuclear quadrupole moments (NQMom) in fm**2, nuclear magnetic moments (NMagM)
  in nuclear magnetons)

  Atom         1           2           3           4           5           6           7
 IAtWgt=          12           1           1           1          16           1          19
 AtmWgt=  12.0000000   1.0078250   1.0078250   1.0078250  15.9949146   1.0078250  18.9984033
 NucSpn=           0           1           1           1           0           1           1
 AtZEff=   0.0000000   0.0000000   0.0000000   0.0000000   0.0000000   0.0000000   0.0000000
 NQMom=    0.0000000   0.0000000   0.0000000   0.0000000   0.0000000   0.0000000   0.0000000
 NMagM=    0.0000000   2.7928460   2.7928460   2.7928460   0.0000000   2.7928460   2.6288670
 AtZNuc=   6.0000000   1.0000000   1.0000000   1.0000000   8.0000000   1.0000000   9.0000000
 Leave Link  101 at Thu Feb  6 17:46:55 2020, MaxMem=  1048576000 cpu:         0.2
 (Enter /usr/local/gaussian09d01/g09/l103.exe)

 GradGradGradGradGradGradGradGradGradGradGradGradGradGradGradGradGradGrad
 Berny optimization.
 Initialization pass.
 Trust Radius=1.00D-01 FncErr=1.00D-07 GrdErr=1.00D-07
 Number of steps in this run=      2 maximum allowed number of steps=      2.
 GradGradGradGradGradGradGradGradGradGradGradGradGradGradGradGradGradGrad

 Leave Link  103 at Thu Feb  6 17:46:55 2020, MaxMem=  1048576000 cpu:         0.1
 (Enter /usr/local/gaussian09d01/g09/l202.exe)
                          Input orientation:                          
 ---------------------------------------------------------------------
 Center     Atomic      Atomic             Coordinates (Angstroms)
 Number     Number       Type             X           Y           Z
 ---------------------------------------------------------------------
      1          6           0        0.061029    0.000340   -3.461200
      2          1           0       -0.915186   -0.119367   -3.027963
      3          1           0        0.571893   -0.945710   -3.437211
      4          1           0        0.595150    0.700797   -2.845503
      5          8           0        0.011192    0.405264   -4.869752
      6          1           0       -0.430164    1.241204   -4.970511
      7          9           0       -0.111051   -0.258172   -0.864232
 ---------------------------------------------------------------------
                    Distance matrix (angstroms):
                    1          2          3          4          5
     1  C    0.000000
     2  H    1.074718   0.000000
     3  H    1.075438   1.749780   0.000000
     4  H    1.074713   1.728315   1.749755   0.000000
     5  O    1.466447   2.127346   2.047362   2.127424   0.000000
     6  H    2.014704   2.420721   2.852668   2.420530   0.950654
     7  F    2.615470   2.312495   2.749426   2.311661   4.061931
                    6          7
     6  H    0.000000
     7  F    4.383091   0.000000
 Symmetry turned off by external request.
 Stoichiometry    CH4FO
 Rotational constants (GHZ):    114.3358587      3.2628607      3.2334324
 Leave Link  202 at Thu Feb  6 17:46:55 2020, MaxMem=  1048576000 cpu:         0.0
 (Enter /usr/local/gaussian09d01/g09/l301.exe)
 Standard basis: 6-31G (6D, 7F)
 Ernie: Thresh=  0.10000D-02 Tol=  0.10000D-05 Strict=F.
    35 basis functions,    82 primitive gaussians,    35 cartesian basis functions
    14 alpha electrons       14 beta electrons
       nuclear repulsion energy        67.0367716918 Hartrees.
 IExCor=    0 DFT=F Ex=HF Corr=None ExCW=0 ScaHFX=  1.000000
 ScaDFX=  1.000000  1.000000  1.000000  1.000000 ScalE2=  1.000000  1.000000
 IRadAn=      0 IRanWt=     -1 IRanGd=            0 ICorTp=0 IEmpDi=  4
 NAtoms=    7 NActive=    7 NUniq=    7 SFac= 1.00D+00 NAtFMM=   60 NAOKFM=F Big=F
 Integral buffers will be    131072 words long.
 Raffenetti 1 integral format.
 Two-electron integral symmetry is turned off.
 Leave Link  301 at Thu Feb  6 17:46:55 2020, MaxMem=  1048576000 cpu:         0.1
 (Enter /usr/local/gaussian09d01/g09/l302.exe)
 NPDir=0 NMtPBC=     1 NCelOv=     1 NCel=       1 NClECP=     1 NCelD=      1
         NCelK=      1 NCelE2=     1 NClLst=     1 CellRange=     0.0.
 One-electron integrals computed using PRISM.
 NBasis=    35 RedAO= T EigKep=  1.63D-02  NBF=    35
 NBsUse=    35 1.00D-06 EigRej= -1.00D+00 NBFU=    35
 Leave Link  302 at Thu Feb  6 17:46:56 2020, MaxMem=  1048576000 cpu:         0.2
 (Enter /usr/local/gaussian09d01/g09/l303.exe)
 DipDrv:  MaxL=1.
 Leave Link  303 at Thu Feb  6 17:46:56 2020, MaxMem=  1048576000 cpu:         0.1
 (Enter /usr/local/gaussian09d01/g09/l401.exe)
 Initial guess from the checkpoint file:  "sn2_MO.chk"
 B after Tr=     0.003130   -0.005762   -0.000247
         Rot=    1.000000   -0.000297   -0.000159   -0.000039 Ang=  -0.04 deg.
 Guess basis will be translated and rotated to current coordinates.
 JPrj=2 DoOrth=T DoCkMO=T.
 Leave Link  401 at Thu Feb  6 17:46:56 2020, MaxMem=  1048576000 cpu:         0.2
 (Enter /usr/local/gaussian09d01/g09/l502.exe)
 Closed shell SCF:
 Using DIIS extrapolation, IDIIS=  1040.
 Two-electron integral symmetry not used.
 Keep R1 ints in memory in canonical form, NReq=1037234.
 IVT=       22659 IEndB=       22659 NGot=  1048576000 MDV=  1048354577
 LenX=  1048354577 LenY=  1048352911
 Requested convergence on RMS density matrix=1.00D-08 within 128 cycles.
 Requested convergence on MAX density matrix=1.00D-06.
 Requested convergence on             energy=1.00D-06.
 No special actions if energy rises.
 FoFCou: FMM=F IPFlag=           0 FMFlag=           0 FMFlg1=           0
         NFxFlg=           0 DoJE=F BraDBF=F KetDBF=F FulRan=T
         wScrn=  0.000000 ICntrl=     600 IOpCl=  0 I1Cent=           0 NGrid=           0
         NMat0=    1 NMatS0=    630 NMatT0=    0 NMatD0=    1 NMtDS0=    0 NMtDT0=    0
 Symmetry not used in FoFCou.

 Cycle   1  Pass 1  IDiag  1:
 E= -214.366405713964    
 DIIS: error= 2.39D-03 at cycle   1 NSaved=   1.
 NSaved= 1 IEnMin= 1 EnMin= -214.366405713964     IErMin= 1 ErrMin= 2.39D-03
 ErrMax= 2.39D-03  0.00D+00 EMaxC= 1.00D-01 BMatC= 1.39D-04 BMatP= 1.39D-04
 IDIUse=3 WtCom= 9.76D-01 WtEn= 2.39D-02
 Coeff-Com:  0.100D+01
 Coeff-En:   0.100D+01
 Coeff:      0.100D+01
 Gap=     0.498 Goal=   None    Shift=    0.000
 GapD=    0.498 DampG=2.000 DampE=1.000 DampFc=2.0000 IDamp=-1.
 RMSDP=4.94D-04 MaxDP=3.03D-03              OVMax= 4.38D-03

 Cycle   2  Pass 1  IDiag  1:
 E= -214.366660745111     Delta-E=       -0.000255031147 Rises=F Damp=F
 DIIS: error= 8.59D-04 at cycle   2 NSaved=   2.
 NSaved= 2 IEnMin= 2 EnMin= -214.366660745111     IErMin= 2 ErrMin= 8.59D-04
 ErrMax= 8.59D-04  0.00D+00 EMaxC= 1.00D-01 BMatC= 1.15D-05 BMatP= 1.39D-04
 IDIUse=3 WtCom= 9.91D-01 WtEn= 8.59D-03
 Coeff-Com: -0.329D+00 0.133D+01
 Coeff-En:   0.000D+00 0.100D+01
 Coeff:     -0.326D+00 0.133D+01
 Gap=     0.498 Goal=   None    Shift=    0.000
 RMSDP=2.07D-04 MaxDP=1.00D-03 DE=-2.55D-04 OVMax= 2.12D-03

 Cycle   3  Pass 1  IDiag  1:
 E= -214.366688274257     Delta-E=       -0.000027529145 Rises=F Damp=F
 DIIS: error= 1.68D-04 at cycle   3 NSaved=   3.
 NSaved= 3 IEnMin= 3 EnMin= -214.366688274257     IErMin= 3 ErrMin= 1.68D-04
 ErrMax= 1.68D-04  0.00D+00 EMaxC= 1.00D-01 BMatC= 5.91D-07 BMatP= 1.15D-05
 IDIUse=3 WtCom= 9.98D-01 WtEn= 1.68D-03
 Coeff-Com: -0.635D-01 0.175D+00 0.888D+00
 Coeff-En:   0.000D+00 0.000D+00 0.100D+01
 Coeff:     -0.634D-01 0.175D+00 0.888D+00
 Gap=     0.498 Goal=   None    Shift=    0.000
 RMSDP=3.17D-05 MaxDP=2.35D-04 DE=-2.75D-05 OVMax= 3.39D-04

 Cycle   4  Pass 1  IDiag  1:
 E= -214.366689133807     Delta-E=       -0.000000859550 Rises=F Damp=F
 DIIS: error= 6.07D-05 at cycle   4 NSaved=   4.
 NSaved= 4 IEnMin= 4 EnMin= -214.366689133807     IErMin= 4 ErrMin= 6.07D-05
 ErrMax= 6.07D-05  0.00D+00 EMaxC= 1.00D-01 BMatC= 8.92D-08 BMatP= 5.91D-07
 IDIUse=1 WtCom= 1.00D+00 WtEn= 0.00D+00
 Coeff-Com:  0.400D-01-0.178D+00 0.159D+00 0.980D+00
 Coeff:      0.400D-01-0.178D+00 0.159D+00 0.980D+00
 Gap=     0.498 Goal=   None    Shift=    0.000
 RMSDP=1.69D-05 MaxDP=9.87D-05 DE=-8.60D-07 OVMax= 2.06D-04

 Cycle   5  Pass 1  IDiag  1:
 E= -214.366689293122     Delta-E=       -0.000000159316 Rises=F Damp=F
 DIIS: error= 9.45D-06 at cycle   5 NSaved=   5.
 NSaved= 5 IEnMin= 5 EnMin= -214.366689293122     IErMin= 5 ErrMin= 9.45D-06
 ErrMax= 9.45D-06  0.00D+00 EMaxC= 1.00D-01 BMatC= 2.58D-09 BMatP= 8.92D-08
 IDIUse=1 WtCom= 1.00D+00 WtEn= 0.00D+00
 Coeff-Com: -0.527D-02 0.280D-01-0.738D-01-0.181D+00 0.123D+01
 Coeff:     -0.527D-02 0.280D-01-0.738D-01-0.181D+00 0.123D+01
 Gap=     0.498 Goal=   None    Shift=    0.000
 RMSDP=3.93D-06 MaxDP=2.81D-05 DE=-1.59D-07 OVMax= 5.86D-05

 Cycle   6  Pass 1  IDiag  1:
 E= -214.366689300645     Delta-E=       -0.000000007522 Rises=F Damp=F
 DIIS: error= 3.55D-06 at cycle   6 NSaved=   6.
 NSaved= 6 IEnMin= 6 EnMin= -214.366689300645     IErMin= 6 ErrMin= 3.55D-06
 ErrMax= 3.55D-06  0.00D+00 EMaxC= 1.00D-01 BMatC= 1.98D-10 BMatP= 2.58D-09
 IDIUse=1 WtCom= 1.00D+00 WtEn= 0.00D+00
 Coeff-Com: -0.279D-02 0.130D-01-0.176D-01-0.682D-01 0.101D+00 0.975D+00
 Coeff:     -0.279D-02 0.130D-01-0.176D-01-0.682D-01 0.101D+00 0.975D+00
 Gap=     0.498 Goal=   None    Shift=    0.000
 RMSDP=8.47D-07 MaxDP=5.45D-06 DE=-7.52D-09 OVMax= 1.22D-05

 Cycle   7  Pass 1  IDiag  1:
 E= -214.366689301131     Delta-E=       -0.000000000487 Rises=F Damp=F
 DIIS: error= 1.18D-06 at cycle   7 NSaved=   7.
 NSaved= 7 IEnMin= 7 EnMin= -214.366689301131     IErMin= 7 ErrMin= 1.18D-06
 ErrMax= 1.18D-06  0.00D+00 EMaxC= 1.00D-01 BMatC= 2.12D-11 BMatP= 1.98D-10
 IDIUse=1 WtCom= 1.00D+00 WtEn= 0.00D+00
 Coeff-Com:  0.102D-02-0.508D-02 0.102D-01 0.327D-01-0.155D+00-0.151D+00
 Coeff-Com:  0.127D+01
 Coeff:      0.102D-02-0.508D-02 0.102D-01 0.327D-01-0.155D+00-0.151D+00
 Coeff:      0.127D+01
 Gap=     0.498 Goal=   None    Shift=    0.000
 RMSDP=3.39D-07 MaxDP=2.35D-06 DE=-4.87D-10 OVMax= 4.78D-06

 Cycle   8  Pass 1  IDiag  1:
 E= -214.366689301192     Delta-E=       -0.000000000060 Rises=F Damp=F
 DIIS: error= 1.69D-07 at cycle   8 NSaved=   8.
 NSaved= 8 IEnMin= 8 EnMin= -214.366689301192     IErMin= 8 ErrMin= 1.69D-07
 ErrMax= 1.69D-07  0.00D+00 EMaxC= 1.00D-01 BMatC= 8.92D-13 BMatP= 2.12D-11
 IDIUse=1 WtCom= 1.00D+00 WtEn= 0.00D+00
 Coeff-Com:  0.131D-03-0.620D-03 0.793D-03 0.345D-02-0.499D-02-0.429D-01
 Coeff-Com:  0.109D-01 0.103D+01
 Coeff:      0.131D-03-0.620D-03 0.793D-03 0.345D-02-0.499D-02-0.429D-01
 Coeff:      0.109D-01 0.103D+01
 Gap=     0.498 Goal=   None    Shift=    0.000
 RMSDP=4.72D-08 MaxDP=3.79D-07 DE=-6.00D-11 OVMax= 5.02D-07

 Cycle   9  Pass 1  IDiag  1:
 E= -214.366689301193     Delta-E=       -0.000000000002 Rises=F Damp=F
 DIIS: error= 6.32D-08 at cycle   9 NSaved=   9.
 NSaved= 9 IEnMin= 9 EnMin= -214.366689301193     IErMin= 9 ErrMin= 6.32D-08
 ErrMax= 6.32D-08  0.00D+00 EMaxC= 1.00D-01 BMatC= 1.36D-13 BMatP= 8.92D-13
 IDIUse=1 WtCom= 1.00D+00 WtEn= 0.00D+00
 Coeff-Com: -0.846D-04 0.428D-03-0.967D-03-0.285D-02 0.163D-01 0.605D-02
 Coeff-Com: -0.139D+00 0.239D+00 0.881D+00
 Coeff:     -0.846D-04 0.428D-03-0.967D-03-0.285D-02 0.163D-01 0.605D-02
 Coeff:     -0.139D+00 0.239D+00 0.881D+00
 Gap=     0.498 Goal=   None    Shift=    0.000
 RMSDP=1.55D-08 MaxDP=1.27D-07 DE=-1.93D-12 OVMax= 1.69D-07

 Cycle  10  Pass 1  IDiag  1:
 E= -214.366689301193     Delta-E=        0.000000000000 Rises=F Damp=F
 DIIS: error= 1.47D-08 at cycle  10 NSaved=  10.
 NSaved=10 IEnMin=10 EnMin= -214.366689301193     IErMin=10 ErrMin= 1.47D-08
 ErrMax= 1.47D-08  0.00D+00 EMaxC= 1.00D-01 BMatC= 3.85D-15 BMatP= 1.36D-13
 IDIUse=1 WtCom= 1.00D+00 WtEn= 0.00D+00
 Coeff-Com:  0.166D-04-0.865D-04 0.227D-03 0.599D-03-0.417D-02 0.287D-03
 Coeff-Com:  0.375D-01-0.122D+00-0.225D+00 0.131D+01
 Coeff:      0.166D-04-0.865D-04 0.227D-03 0.599D-03-0.417D-02 0.287D-03
 Coeff:      0.375D-01-0.122D+00-0.225D+00 0.131D+01
 Gap=     0.498 Goal=   None    Shift=    0.000
 RMSDP=4.58D-09 MaxDP=4.40D-08 DE=-5.68D-14 OVMax= 5.65D-08

 SCF Done:  E(RHF) =  -214.366689301     A.U. after   10 cycles
            NFock= 10  Conv=0.46D-08     -V/T= 1.9987
 KE= 2.146456798839D+02 PE=-6.525136956677D+02 EE= 1.564645547909D+02
 Leave Link  502 at Thu Feb  6 17:46:56 2020, MaxMem=  1048576000 cpu:         0.2
 (Enter /usr/local/gaussian09d01/g09/l508.exe)
 QCSCF skips out because SCF is already converged.
 Leave Link  508 at Thu Feb  6 17:46:56 2020, MaxMem=  1048576000 cpu:         0.0
 (Enter /usr/local/gaussian09d01/g09/l601.exe)
 Copying SCF densities to generalized density rwf, IOpCl= 0 IROHF=0.

 **********************************************************************

            Population analysis using the SCF density.

 **********************************************************************

 Alpha  occ. eigenvalues --  -25.75283 -20.38630 -11.07534  -1.18036  -1.02061
 Alpha  occ. eigenvalues --   -0.74394  -0.50158  -0.42856  -0.40184  -0.32035
 Alpha  occ. eigenvalues --   -0.27427  -0.13049  -0.12853  -0.12446
 Alpha virt. eigenvalues --    0.37319   0.46362   0.51394   0.53504   0.58365
 Alpha virt. eigenvalues --    0.95578   0.95781   1.03611   1.29355   1.37001
 Alpha virt. eigenvalues --    1.37250   1.41858   1.45612   1.47057   1.50751
 Alpha virt. eigenvalues --    1.62415   1.96149   1.97801   2.01806   2.16239
 Alpha virt. eigenvalues --    2.33894
          Condensed to atoms (all electrons):
               1          2          3          4          5          6
     1  C    4.959596   0.382429   0.389789   0.382358   0.035246  -0.036041
     2  H    0.382429   0.538894  -0.029859  -0.036667  -0.039595  -0.002463
     3  H    0.389789  -0.029859   0.556449  -0.029838  -0.037313   0.005281
     4  H    0.382358  -0.036667  -0.029838   0.538740  -0.039567  -0.002468
     5  O    0.035246  -0.039595  -0.037313  -0.039567   8.641539   0.250885
     6  H   -0.036041  -0.002463   0.005281  -0.002468   0.250885   0.419657
     7  F    0.009568   0.014575   0.001717   0.014622   0.000231   0.000009
               7
     1  C    0.009568
     2  H    0.014575
     3  H    0.001717
     4  H    0.014622
     5  O    0.000231
     6  H    0.000009
     7  F    9.879324
 Mulliken charges:
               1
     1  C   -0.122945
     2  H    0.172685
     3  H    0.143775
     4  H    0.172820
     5  O   -0.811426
     6  H    0.365139
     7  F   -0.920047
 Sum of Mulliken charges =  -1.00000
 Mulliken charges with hydrogens summed into heavy atoms:
               1
     1  C    0.366335
     5  O   -0.446287
     7  F   -0.920047
 Electronic spatial extent (au):  <R**2>=           1238.7275
 Charge=             -1.0000 electrons
 Dipole moment (field-independent basis, Debye):
    X=             -0.3680    Y=              2.0775    Z=              7.8644  Tot=              8.1425
 Quadrupole moment (field-independent basis, Debye-Ang):
   XX=            -19.1016   YY=            -17.0782   ZZ=            -50.6787
   XY=             -1.3734   XZ=              4.0060   YZ=             -5.6120
 Traceless Quadrupole moment (field-independent basis, Debye-Ang):
   XX=              9.8512   YY=             11.8746   ZZ=            -21.7258
   XY=             -1.3734   XZ=              4.0060   YZ=             -5.6120
 Octapole moment (field-independent basis, Debye-Ang**2):
  XXX=              0.1081  YYY=             -0.2835  ZZZ=            352.7532  XYY=             -0.6335
  XXY=             -0.9116  XXZ=             59.5781  XZZ=            -22.0123  YZZ=             22.9356
  YYZ=             48.2844  XYZ=              6.4872
 Hexadecapole moment (field-independent basis, Debye-Ang**3):
 XXXX=            -22.6933 YYYY=            -28.4985 ZZZZ=          -2393.3306 XXXY=             -0.1172
 XXXZ=              4.1974 YYYX=             -1.8051 YYYZ=             19.4237 ZZZX=            116.5844
 ZZZY=            -83.4028 XXYY=             -8.6732 XXZZ=           -241.8064 YYZZ=           -185.7686
 XXYZ=             10.5379 YYXZ=              5.9757 ZZXY=            -31.9783
 N-N= 6.703677169179D+01 E-N=-6.525136958310D+02  KE= 2.146456798839D+02
 No NMR shielding tensors so no spin-rotation constants.
 Leave Link  601 at Thu Feb  6 17:46:56 2020, MaxMem=  1048576000 cpu:         0.2
 (Enter /usr/local/gaussian09d01/g09/l701.exe)
 Compute integral first derivatives.
 ... and contract with generalized density number  0.
 Leave Link  701 at Thu Feb  6 17:46:56 2020, MaxMem=  1048576000 cpu:         0.2
 (Enter /usr/local/gaussian09d01/g09/l702.exe)
 L702 exits ... SP integral derivatives will be done elsewhere.
 Leave Link  702 at Thu Feb  6 17:46:56 2020, MaxMem=  1048576000 cpu:         0.1
 (Enter /usr/local/gaussian09d01/g09/l703.exe)
 Compute integral first derivatives, UseDBF=F ICtDFT=           0.
 Integral derivatives from FoFJK, PRISM(SPDF).
 Calling FoFJK, ICntrl=      2127 FMM=F ISym2X=0 I1Cent= 0 IOpClX= 0 NMat=1 NMatS=1 NMatT=0.
 FoFJK:  IHMeth= 1 ICntrl=    2127 DoSepK=F KAlg= 0 I1Cent=   0 FoldK=F
 IRaf=         0 NMat=   1 IRICut=       1 DoRegI=T DoRafI=F ISym2E= 0.
 FoFCou: FMM=F IPFlag=           0 FMFlag=      100000 FMFlg1=         800
         NFxFlg=           0 DoJE=F BraDBF=F KetDBF=F FulRan=T
         wScrn=  0.000000 ICntrl=    2127 IOpCl=  0 I1Cent=           0 NGrid=           0
         NMat0=    1 NMatS0=      1 NMatT0=    0 NMatD0=    1 NMtDS0=    0 NMtDT0=    0
 Symmetry not used in FoFCou.
 Leave Link  703 at Thu Feb  6 17:46:56 2020, MaxMem=  1048576000 cpu:         0.2
 (Enter /usr/local/gaussian09d01/g09/l716.exe)
 Dipole        =-1.44791282D-01 8.17334527D-01 3.09409393D+00
 -------------------------------------------------------------------
 Center     Atomic                   Forces (Hartrees/Bohr)
 Number     Number              X              Y              Z
 -------------------------------------------------------------------
      1        6           0.000464451   -0.000790509   -0.000279002
      2        1           0.000025638   -0.000010911   -0.000055792
      3        1          -0.000237468    0.000448013   -0.000052454
      4        1           0.000003781   -0.000024196   -0.000058572
      5        8          -0.000369189    0.000608959    0.000335181
      6        1           0.000215546   -0.000415856    0.000078547
      7        9          -0.000102758    0.000184500    0.000032093
 -------------------------------------------------------------------
 Cartesian Forces:  Max     0.000790509 RMS     0.000314485
 Z-matrix is all fixed cartesians, so copy forces.
 Force constants in Cartesian coordinates: 
                1             2             3             4             5 
      1  0.658837D+00
      2 -0.564636D-02  0.662994D+00
      3 -0.124502D-01  0.751762D-02  0.723803D+00
      4 -0.311508D+00 -0.294364D-01  0.103359D+00  0.312828D+00
      5 -0.347252D-01 -0.821264D-01  0.130632D-01  0.318098D-01  0.624871D-01
      6  0.114096D+00  0.122178D-01 -0.129893D+00 -0.111927D+00 -0.122961D-01
      7 -0.141763D+00  0.119411D+00 -0.317133D-02 -0.585333D-02  0.300912D-01
      8  0.120607D+00 -0.300637D+00  0.562033D-02 -0.307685D-02  0.158375D-01
      9 -0.854441D-02  0.155144D-01 -0.763317D-01  0.330982D-02 -0.162332D-01
     10 -0.150573D+00 -0.937915D-01 -0.803438D-01 -0.740936D-02 -0.203996D-01
     11 -0.898532D-01 -0.194473D+00 -0.103912D+00  0.665692D-03  0.250032D-02
     12 -0.850149D-01 -0.114239D+00 -0.178492D+00  0.567033D-02  0.148523D-01
     13 -0.589656D-01  0.123569D-01 -0.642146D-02  0.119534D-01 -0.460021D-02
     14  0.935099D-02 -0.874457D-01  0.772345D-01  0.434498D-04  0.248198D-02
     15  0.710189D-02  0.523082D-01 -0.347295D+00 -0.410441D-03  0.876273D-03
     16  0.397209D-02 -0.289338D-02 -0.972316D-03 -0.106200D-04 -0.217602D-02
     17  0.266451D-03  0.168825D-02  0.475904D-03 -0.576142D-05 -0.118051D-02
     18 -0.151885D-01  0.266805D-01  0.820740D-02 -0.128052D-05 -0.262377D-03
     19  0.000000D+00  0.000000D+00  0.000000D+00  0.000000D+00  0.000000D+00
     20  0.000000D+00  0.000000D+00  0.000000D+00  0.000000D+00  0.000000D+00
     21  0.000000D+00  0.000000D+00  0.000000D+00  0.000000D+00  0.000000D+00
                6             7             8             9            10 
      6  0.110797D+00
      7 -0.487495D-02  0.127880D+00
      8 -0.255708D-02 -0.128243D+00  0.296107D+00
      9  0.297269D-02  0.305813D-02 -0.607934D-02  0.606405D-01
     10 -0.223321D-01  0.181552D-01  0.102069D-01  0.158967D-01  0.136026D+00
     11  0.219086D-02 -0.188790D-01 -0.106229D-01 -0.168890D-01  0.100226D+00
     12  0.168807D-01  0.572821D-02  0.323074D-02  0.542354D-02  0.858333D-01
     13  0.256636D-01 -0.318372D-03 -0.525643D-03 -0.139495D-01  0.572673D-02
     14  0.783693D-03 -0.341019D-02 -0.124401D-02  0.235627D-01  0.480286D-02
     15 -0.682727D-03 -0.969082D-03 -0.339023D-03  0.726725D-02  0.117809D-02
     16 -0.625178D-03  0.189929D-02  0.103143D-02  0.229310D-03 -0.192586D-02
     17 -0.339164D-03  0.103038D-02  0.559557D-03  0.124403D-03 -0.104479D-02
     18 -0.753817D-04  0.229010D-03  0.124366D-03  0.276494D-04 -0.232213D-03
     19  0.000000D+00  0.000000D+00  0.000000D+00  0.000000D+00  0.000000D+00
     20  0.000000D+00  0.000000D+00  0.000000D+00  0.000000D+00  0.000000D+00
     21  0.000000D+00  0.000000D+00  0.000000D+00  0.000000D+00  0.000000D+00
               11            12            13            14            15 
     11  0.188933D+00
     12  0.114959D+00  0.161161D+00
     13  0.671583D-02 -0.126083D-01  0.177194D+00
     14  0.130527D-01 -0.190161D-01 -0.245287D+00  0.521741D+00
     15  0.351471D-02 -0.502056D-02  0.142263D-01 -0.106930D+00  0.408966D+00
     16  0.112449D-02  0.391402D-03 -0.135591D+00  0.234500D+00 -0.211268D-01
     17  0.610043D-03  0.212339D-03  0.231340D+00 -0.448586D+00  0.505703D-01
     18  0.135587D-03  0.471939D-04 -0.691057D-02  0.243657D-01 -0.632354D-01
     19  0.000000D+00  0.000000D+00  0.000000D+00  0.000000D+00  0.000000D+00
     20  0.000000D+00  0.000000D+00  0.000000D+00  0.000000D+00  0.000000D+00
     21  0.000000D+00  0.000000D+00  0.000000D+00  0.000000D+00  0.000000D+00
               16            17            18            19            20 
     16  0.131656D+00
     17 -0.231586D+00  0.446908D+00
     18  0.221035D-01 -0.510438D-01  0.550286D-01
     19  0.000000D+00  0.000000D+00  0.000000D+00  0.100000D+01
     20  0.000000D+00  0.000000D+00  0.000000D+00  0.000000D+00  0.100000D+01
     21  0.000000D+00  0.000000D+00  0.000000D+00  0.000000D+00  0.000000D+00
               21 
     21  0.100000D+01
 Leave Link  716 at Thu Feb  6 17:46:56 2020, MaxMem=  1048576000 cpu:         0.1
 (Enter /usr/local/gaussian09d01/g09/l103.exe)

 GradGradGradGradGradGradGradGradGradGradGradGradGradGradGradGradGradGrad
 Berny optimization.
 Search for a local minimum.
 Step number   1 out of a maximum of    2
 All quantities printed in internal units (Hartrees-Bohrs-Radians)
 Second derivative matrix not updated -- unit matrix used.
 ITU=  0
 Angle between quadratic step and forces=   0.00 degrees.
 Linear search not attempted -- first point.
 TrRot=  0.000000  0.000000  0.000000  0.000000  0.000000  0.000000
 Variable       Old X    -DE/DX   Delta X   Delta X   Delta X     New X
                                 (Linear)    (Quad)   (Total)
    X1        0.11533   0.00046   0.00000   0.00046   0.00046   0.11579
    Y1        0.00064  -0.00079   0.00000  -0.00079  -0.00079  -0.00015
    Z1       -6.54072  -0.00028   0.00000  -0.00028  -0.00028  -6.54100
    X2       -1.72945   0.00003   0.00000   0.00003   0.00003  -1.72943
    Y2       -0.22557  -0.00001   0.00000  -0.00001  -0.00001  -0.22558
    Z2       -5.72202  -0.00006   0.00000  -0.00006  -0.00006  -5.72208
    X3        1.08072  -0.00024   0.00000  -0.00024  -0.00024   1.08048
    Y3       -1.78713   0.00045   0.00000   0.00045   0.00045  -1.78668
    Z3       -6.49539  -0.00005   0.00000  -0.00005  -0.00005  -6.49544
    X4        1.12467   0.00000   0.00000   0.00000   0.00000   1.12467
    Y4        1.32431  -0.00002   0.00000  -0.00002  -0.00002   1.32429
    Z4       -5.37722  -0.00006   0.00000  -0.00006  -0.00006  -5.37728
    X5        0.02115  -0.00037   0.00000  -0.00037  -0.00037   0.02078
    Y5        0.76584   0.00061   0.00000   0.00061   0.00061   0.76645
    Z5       -9.20250   0.00034   0.00000   0.00034   0.00034  -9.20216
    X6       -0.81289   0.00022   0.00000   0.00022   0.00022  -0.81268
    Y6        2.34554  -0.00042   0.00000  -0.00042  -0.00042   2.34512
    Z6       -9.39290   0.00008   0.00000   0.00008   0.00008  -9.39283
    X7       -0.20986  -0.00010   0.00000  -0.00010  -0.00010  -0.20996
    Y7       -0.48787   0.00018   0.00000   0.00018   0.00018  -0.48769
    Z7       -1.63316   0.00003   0.00000   0.00003   0.00003  -1.63313
         Item               Value     Threshold  Converged?
 Maximum Force            0.000791     0.000450     NO 
 RMS     Force            0.000314     0.000300     NO 
 Maximum Displacement     0.000791     0.001800     YES
 RMS     Displacement     0.000314     0.001200     YES
 Predicted change in Energy=-1.038456D-06
 GradGradGradGradGradGradGradGradGradGradGradGradGradGradGradGradGradGrad

 Leave Link  103 at Thu Feb  6 17:46:56 2020, MaxMem=  1048576000 cpu:         0.0
 (Enter /usr/local/gaussian09d01/g09/l9999.exe)

 Test job not archived.
 1\1\GINC-KA15\Force\RHF\6-31G\C1H4F1O1\RTAKE\06-Feb-2020\0\\#p HF/6-31
 G guess=read scf=(xqc,maxcon=128,maxcyc=512,conver=8) force IOp(1/10=1
 0) IOp(1/18=10) IOp(2/15=3) IOp(2/12=1)\\force calculation: 1 0 0 0 0\
 \-1,1\C,0.0610285759,0.0003396248,-3.4612002588\H,-0.9151859433,-0.119
 3665118,-3.027962869\H,0.5718925603,-0.945709538,-3.4372110028\H,0.595
 1495248,0.7007968881,-2.845502979\O,0.0111916917,0.4052644157,-4.86975
 23487\H,-0.4301636947,1.2412043111,-4.9705107935\F,-0.1110511654,-0.25
 81718748,-0.8642318469\\Version=ES64L-G09RevD.01\HF=-214.3666893\RMSD=
 4.576e-09\RMSF=3.145e-04\Dipole=-0.1953284,0.9431435,-2.6299911\Quadru
 pole=7.3241514,8.8284698,-16.1526212,-1.0210673,2.9783321,-4.172404\PG
 =Unknown\\@


 THE BEST WAY TO CONVINCE A FOOL THAT HE IS WRONG 
 IS TO LET HIM HAVE HIS OWN WAY.

                                         JOSH BILLINGS
 Job cpu time:       0 days  0 hours  0 minutes  2.4 seconds.
 File lengths (MBytes):  RWF=      5 Int=      0 D2E=      0 Chk=      1 Scr=      1
 Normal termination of Gaussian 09 at Thu Feb  6 17:46:56 2020.
