 Entering Gaussian System, Link 0=g09
 Input=./n20_h23_20.gjf
 Output=./n20_h23_20.log
 Initial command:
 /usr/local/gaussian09d01/g09/l1.exe "/scr/Gau-21025.inp" -scrdir="/scr/"
 Entering Link 1 = /usr/local/gaussian09d01/g09/l1.exe PID=     21026.
  
 Copyright (c) 1988,1990,1992,1993,1995,1998,2003,2009,2013,
            Gaussian, Inc.  All Rights Reserved.
  
 This is part of the Gaussian(R) 09 program.  It is based on
 the Gaussian(R) 03 system (copyright 2003, Gaussian, Inc.),
 the Gaussian(R) 98 system (copyright 1998, Gaussian, Inc.),
 the Gaussian(R) 94 system (copyright 1995, Gaussian, Inc.),
 the Gaussian 92(TM) system (copyright 1992, Gaussian, Inc.),
 the Gaussian 90(TM) system (copyright 1990, Gaussian, Inc.),
 the Gaussian 88(TM) system (copyright 1988, Gaussian, Inc.),
 the Gaussian 86(TM) system (copyright 1986, Carnegie Mellon
 University), and the Gaussian 82(TM) system (copyright 1983,
 Carnegie Mellon University). Gaussian is a federally registered
 trademark of Gaussian, Inc.
  
 This software contains proprietary and confidential information,
 including trade secrets, belonging to Gaussian, Inc.
  
 This software is provided under written license and may be
 used, copied, transmitted, or stored only in accord with that
 written license.
  
 The following legend is applicable only to US Government
 contracts under FAR:
  
                    RESTRICTED RIGHTS LEGEND
  
 Use, reproduction and disclosure by the US Government is
 subject to restrictions as set forth in subparagraphs (a)
 and (c) of the Commercial Computer Software - Restricted
 Rights clause in FAR 52.227-19.
  
 Gaussian, Inc.
 340 Quinnipiac St., Bldg. 40, Wallingford CT 06492
  
  
 ---------------------------------------------------------------
 Warning -- This program may not be used in any manner that
 competes with the business of Gaussian, Inc. or will provide
 assistance to any competitor of Gaussian, Inc.  The licensee
 of this program is prohibited from giving any competitor of
 Gaussian, Inc. access to this program.  By using this program,
 the user acknowledges that Gaussian, Inc. is engaged in the
 business of creating and licensing software in the field of
 computational chemistry and represents and warrants to the
 licensee that it is not a competitor of Gaussian, Inc. and that
 it will not use this program in any manner prohibited above.
 ---------------------------------------------------------------
  

 Cite this work as:
 Gaussian 09, Revision D.01,
 M. J. Frisch, G. W. Trucks, H. B. Schlegel, G. E. Scuseria, 
 M. A. Robb, J. R. Cheeseman, G. Scalmani, V. Barone, B. Mennucci, 
 G. A. Petersson, H. Nakatsuji, M. Caricato, X. Li, H. P. Hratchian, 
 A. F. Izmaylov, J. Bloino, G. Zheng, J. L. Sonnenberg, M. Hada, 
 M. Ehara, K. Toyota, R. Fukuda, J. Hasegawa, M. Ishida, T. Nakajima, 
 Y. Honda, O. Kitao, H. Nakai, T. Vreven, J. A. Montgomery, Jr., 
 J. E. Peralta, F. Ogliaro, M. Bearpark, J. J. Heyd, E. Brothers, 
 K. N. Kudin, V. N. Staroverov, T. Keith, R. Kobayashi, J. Normand, 
 K. Raghavachari, A. Rendell, J. C. Burant, S. S. Iyengar, J. Tomasi, 
 M. Cossi, N. Rega, J. M. Millam, M. Klene, J. E. Knox, J. B. Cross, 
 V. Bakken, C. Adamo, J. Jaramillo, R. Gomperts, R. E. Stratmann, 
 O. Yazyev, A. J. Austin, R. Cammi, C. Pomelli, J. W. Ochterski, 
 R. L. Martin, K. Morokuma, V. G. Zakrzewski, G. A. Voth, 
 P. Salvador, J. J. Dannenberg, S. Dapprich, A. D. Daniels, 
 O. Farkas, J. B. Foresman, J. V. Ortiz, J. Cioslowski, 
 and D. J. Fox, Gaussian, Inc., Wallingford CT, 2013.
 
 ******************************************
 Gaussian 09:  ES64L-G09RevD.01 24-Apr-2013
                12-Mar-2020 
 ******************************************
 --------------
 #p M062X/6-31G
 --------------
 1/38=1/1;
 2/12=2,17=6,18=5,40=1/2;
 3/5=1,6=6,11=2,16=1,25=1,30=1,74=-55/1,2,3;
 4//1;
 5/5=2,38=5/2;
 6/7=2,8=2,9=2,10=2,28=1/1;
 99/5=1,9=1/99;
 Leave Link    1 at Thu Mar 12 19:13:01 2020, MaxMem=           0 cpu:         0.0
 (Enter /usr/local/gaussian09d01/g09/l101.exe)
 --------
 chk calc
 --------
 Symbolic Z-matrix:
 Charge =  1 Multiplicity = 1
 C                     3.82448  -1.1422    1.17225 
 H                     4.79911  -1.62961   1.17381 
 H                     3.05361  -1.91631   1.1608 
 H                    -2.54042  -2.84498  -1.0143 
 H                     3.75961  -0.53292   2.07825 
 H                     3.76532  -0.52154   0.27395 
 C                    -2.40154  -0.7055    0.49256 
 C                    -1.33366   0.19321   1.14127 
 C                     0.02197  -0.47034   0.95019 
 N                    -1.3033    1.52915   0.51595 
 O                     0.15593  -1.61146   0.51692 
 O                     1.02492   0.35339   1.29866 
 C                    -2.12189  -0.91834  -0.96711 
 H                    -3.3923   -0.2474    0.5965 
 H                    -2.41918  -1.6699    1.00444 
 H                    -1.5263    0.23947   2.22139 
 H                    -1.5039    0.96075  -1.1704 
 H                    -0.41056   1.99753   0.66615 
 H                     1.9244   -0.03993   1.23082 
 N                    -1.70046   0.06924  -1.69492 
 O                    -2.33685  -2.07165  -1.57518 
 H                    -2.0719    2.12856   0.80783 
 H                    -1.32836  -0.17826  -3.67555 
 
 NAtoms=     23 NQM=       23 NQMF=       0 NMMI=      0 NMMIF=      0
                NMic=       0 NMicF=      0.
                    Isotopes and Nuclear Properties:
 (Nuclear quadrupole moments (NQMom) in fm**2, nuclear magnetic moments (NMagM)
  in nuclear magnetons)

  Atom         1           2           3           4           5           6           7           8           9          10
 IAtWgt=          12           1           1           1           1           1          12          12          12          14
 AtmWgt=  12.0000000   1.0078250   1.0078250   1.0078250   1.0078250   1.0078250  12.0000000  12.0000000  12.0000000  14.0030740
 NucSpn=           0           1           1           1           1           1           0           0           0           2
 AtZEff=   0.0000000   0.0000000   0.0000000   0.0000000   0.0000000   0.0000000   0.0000000   0.0000000   0.0000000   0.0000000
 NQMom=    0.0000000   0.0000000   0.0000000   0.0000000   0.0000000   0.0000000   0.0000000   0.0000000   0.0000000   2.0440000
 NMagM=    0.0000000   2.7928460   2.7928460   2.7928460   2.7928460   2.7928460   0.0000000   0.0000000   0.0000000   0.4037610
 AtZNuc=   6.0000000   1.0000000   1.0000000   1.0000000   1.0000000   1.0000000   6.0000000   6.0000000   6.0000000   7.0000000

  Atom        11          12          13          14          15          16          17          18          19          20
 IAtWgt=          16          16          12           1           1           1           1           1           1          14
 AtmWgt=  15.9949146  15.9949146  12.0000000   1.0078250   1.0078250   1.0078250   1.0078250   1.0078250   1.0078250  14.0030740
 NucSpn=           0           0           0           1           1           1           1           1           1           2
 AtZEff=   0.0000000   0.0000000   0.0000000   0.0000000   0.0000000   0.0000000   0.0000000   0.0000000   0.0000000   0.0000000
 NQMom=    0.0000000   0.0000000   0.0000000   0.0000000   0.0000000   0.0000000   0.0000000   0.0000000   0.0000000   2.0440000
 NMagM=    0.0000000   0.0000000   0.0000000   2.7928460   2.7928460   2.7928460   2.7928460   2.7928460   2.7928460   0.4037610
 AtZNuc=   8.0000000   8.0000000   6.0000000   1.0000000   1.0000000   1.0000000   1.0000000   1.0000000   1.0000000   7.0000000

  Atom        21          22          23
 IAtWgt=          16           1           1
 AtmWgt=  15.9949146   1.0078250   1.0078250
 NucSpn=           0           1           1
 AtZEff=   0.0000000   0.0000000   0.0000000
 NQMom=    0.0000000   0.0000000   0.0000000
 NMagM=    0.0000000   2.7928460   2.7928460
 AtZNuc=   8.0000000   1.0000000   1.0000000
 Leave Link  101 at Thu Mar 12 19:13:01 2020, MaxMem=    33554432 cpu:         0.0
 (Enter /usr/local/gaussian09d01/g09/l202.exe)
                          Input orientation:                          
 ---------------------------------------------------------------------
 Center     Atomic      Atomic             Coordinates (Angstroms)
 Number     Number       Type             X           Y           Z
 ---------------------------------------------------------------------
      1          6           0        3.824483   -1.142195    1.172254
      2          1           0        4.799113   -1.629614    1.173809
      3          1           0        3.053614   -1.916313    1.160805
      4          1           0       -2.540416   -2.844982   -1.014303
      5          1           0        3.759606   -0.532918    2.078246
      6          1           0        3.765324   -0.521541    0.273951
      7          6           0       -2.401542   -0.705499    0.492563
      8          6           0       -1.333656    0.193207    1.141271
      9          6           0        0.021967   -0.470338    0.950187
     10          7           0       -1.303305    1.529149    0.515945
     11          8           0        0.155929   -1.611463    0.516920
     12          8           0        1.024922    0.353393    1.298656
     13          6           0       -2.121889   -0.918337   -0.967113
     14          1           0       -3.392299   -0.247402    0.596497
     15          1           0       -2.419177   -1.669900    1.004436
     16          1           0       -1.526304    0.239474    2.221388
     17          1           0       -1.503902    0.960751   -1.170400
     18          1           0       -0.410560    1.997532    0.666151
     19          1           0        1.924402   -0.039926    1.230819
     20          7           0       -1.700457    0.069239   -1.694920
     21          8           0       -2.336855   -2.071648   -1.575178
     22          1           0       -2.071901    2.128557    0.807834
     23          1           0       -1.328360   -0.178261   -3.675549
 ---------------------------------------------------------------------
                    Distance matrix (angstroms):
                    1          2          3          4          5
     1  C    0.000000
     2  H    1.089717   0.000000
     3  H    1.092532   1.768935   0.000000
     4  H    6.942078   7.754589   6.073442   0.000000
     5  H    1.093732   1.761058   1.803858   7.389167   0.000000
     6  H    1.093462   1.762467   1.799563   6.842538   1.804340
     7  C    6.278222   7.291606   5.627730   2.620556   6.364270
     8  C    5.328288   6.398015   4.868120   3.915783   5.229388
     9  C    3.867794   4.920879   3.365425   4.007987   3.904662
    10  N    5.819023   6.902903   5.591940   4.796365   5.685594
    11  O    3.756056   4.689455   2.983974   3.337138   4.072774
    12  O    3.176523   4.265257   3.047319   5.318930   2.978557
    13  C    6.323476   7.279405   5.684173   1.972143   6.634362
    14  H    7.294799   8.327247   6.682328   3.172979   7.309368
    15  H    6.268167   7.220389   5.480567   2.338979   6.373630
    16  H    5.624999   6.678459   5.171838   4.583883   5.343962
    17  H    6.188869   7.206477   5.872220   3.947446   6.363118
    18  H    5.296189   6.368250   5.250083   5.550689   5.078138
    19  H    2.197438   3.285472   2.191084   5.730926   2.080661
    20  N    6.341389   7.304801   5.890567   3.108288   6.664208
    21  O    6.809871   7.659919   6.047056   0.976762   7.272004
    22  H    6.752626   7.840192   6.538842   5.317497   6.534820
    23  H    7.140179   7.947869   6.753728   3.957615   7.688911
                    6          7          8          9         10
     6  H    0.000000
     7  C    6.173481   0.000000
     8  C    5.221370   1.539115   0.000000
     9  C    3.804292   2.477522   1.521354   0.000000
    10  N    5.473106   2.490045   1.475362   2.437797   0.000000
    11  O    3.778186   2.713305   2.421882   1.227938   3.463063
    12  O    3.053740   3.675826   2.369245   1.343831   2.723175
    13  C    6.029674   1.501385   2.510403   2.910818   2.976530
    14  H    7.170129   1.096474   2.174610   3.439769   2.743450
    15  H    6.332486   1.091969   2.160613   2.720492   3.423114
    16  H    5.689726   2.155888   1.098138   2.125307   2.149773
    17  H    5.661103   2.519443   2.441706   2.978788   1.790831
    18  H    4.892602   3.361625   2.081690   2.521535   1.019283
    19  H    2.129916   4.438671   3.267616   1.970601   3.659389
    20  N    5.839541   2.424215   2.862497   3.202261   2.678990
    21  O    6.561912   2.479133   3.676285   3.808636   4.290310
    22  H    6.432825   2.870528   2.098038   3.340478   1.017462
    23  H    6.454611   4.336226   4.831125   4.827642   4.525981
                   11         12         13         14         15
    11  O    0.000000
    12  O    2.286245   0.000000
    13  C    2.805572   4.080861   0.000000
    14  H    3.802225   4.512852   2.123434   0.000000
    15  H    2.621499   4.005259   2.130782   1.771124   0.000000
    16  H    3.026729   2.715358   3.444094   2.521757   2.433907
    17  H    3.495479   3.586095   1.988519   2.854401   3.533832
    18  H    3.656231   2.272415   3.754796   3.733008   4.195121
    19  H    2.471210   0.984055   4.687748   5.358426   4.644862
    20  N    3.341132   4.058317   1.297157   2.865865   3.290545
    21  O    3.286734   5.043936   1.321393   3.026220   2.612009
    22  H    4.362981   3.603113   3.526542   2.726407   3.819362
    23  H    4.672685   5.528409   2.917710   4.744998   5.031614
                   16         17         18         19         20
    16  H    0.000000
    17  H    3.467704   0.000000
    18  H    2.598926   2.375549   0.000000
    19  H    3.600926   4.303542   3.149942   0.000000
    20  N    3.923872   1.052876   3.310106   4.659557   0.000000
    21  O    4.517986   3.170662   5.029155   5.491796   2.236680
    22  H    2.421661   2.366391   1.672511   4.566362   3.262290
    23  H    5.915028   2.757523   4.942347   5.888297   2.030420
                   21         22         23
    21  O    0.000000
    22  H    4.836390   0.000000
    23  H    3.002255   5.096566   0.000000
 Stoichiometry    C5H13N2O3(1+)
 Framework group  C1[X(C5H13N2O3)]
 Deg. of freedom    63
 Full point group                 C1      NOp   1
 Largest Abelian subgroup         C1      NOp   1
 Largest concise Abelian subgroup C1      NOp   1
                         Standard orientation:                         
 ---------------------------------------------------------------------
 Center     Atomic      Atomic             Coordinates (Angstroms)
 Number     Number       Type             X           Y           Z
 ---------------------------------------------------------------------
      1          6           0       -4.363306   -0.974041    0.307502
      2          1           0       -5.263215   -1.585361    0.370233
      3          1           0       -3.650268   -1.479172   -0.348278
      4          1           0        2.347241   -2.190084   -0.989512
      5          1           0       -4.653855   -0.001132   -0.099045
      6          1           0       -3.958577   -0.874632    1.318427
      7          6           0        1.639197    0.333007   -0.987740
      8          6           0        0.405315    1.194795   -0.665665
      9          6           0       -0.771315    0.262264   -0.419810
     10          7           0        0.623237    2.016137    0.540403
     11          8           0       -0.729207   -0.944780   -0.641405
     12          8           0       -1.828966    0.926923    0.075654
     13          6           0        1.947709   -0.618051    0.132290
     14          1           0        2.512943    0.974307   -1.153741
     15          1           0        1.454468   -0.231228   -1.904206
     16          1           0        0.163601    1.801292   -1.548639
     17          1           0        1.461502    0.750552    1.490500
     18          1           0       -0.256699    2.304921    0.966141
     19          1           0       -2.632459    0.376819    0.217597
     20          7           0        1.844209   -0.222006    1.363164
     21          8           0        2.379209   -1.849766   -0.074512
     22          1           0        1.219606    2.823904    0.375824
     23          1           0        2.269709   -1.475962    2.902368
 ---------------------------------------------------------------------
 Rotational constants (GHZ):      1.7692815      0.7124185      0.6045328
 Leave Link  202 at Thu Mar 12 19:13:01 2020, MaxMem=    33554432 cpu:         0.0
 (Enter /usr/local/gaussian09d01/g09/l301.exe)
 Standard basis: 6-31G (6D, 7F)
 Ernie: Thresh=  0.10000D-02 Tol=  0.10000D-05 Strict=F.
 There are   116 symmetry adapted cartesian basis functions of A   symmetry.
 There are   116 symmetry adapted basis functions of A   symmetry.
   116 basis functions,   272 primitive gaussians,   116 cartesian basis functions
    40 alpha electrons       40 beta electrons
       nuclear repulsion energy       582.6167387776 Hartrees.
 IExCor= 4336 DFT=T Ex+Corr=M062X ExCW=0 ScaHFX=  0.540000
 ScaDFX=  1.000000  1.000000  1.000000  1.000000 ScalE2=  1.000000  1.000000
 IRadAn=      0 IRanWt=     -1 IRanGd=            0 ICorTp=0 IEmpDi=  4
 NAtoms=   23 NActive=   23 NUniq=   23 SFac= 1.00D+00 NAtFMM=   60 NAOKFM=F Big=F
 Integral buffers will be    131072 words long.
 Raffenetti 2 integral format.
 Two-electron integral symmetry is turned on.
 Leave Link  301 at Thu Mar 12 19:13:01 2020, MaxMem=    33554432 cpu:         0.0
 (Enter /usr/local/gaussian09d01/g09/l302.exe)
 NPDir=0 NMtPBC=     1 NCelOv=     1 NCel=       1 NClECP=     1 NCelD=      1
         NCelK=      1 NCelE2=     1 NClLst=     1 CellRange=     0.0.
 One-electron integrals computed using PRISM.
 NBasis=   116 RedAO= T EigKep=  3.63D-03  NBF=   116
 NBsUse=   116 1.00D-06 EigRej= -1.00D+00 NBFU=   116
 Precomputing XC quadrature grid using
 IXCGrd= 4 IRadAn=           0 IRanWt=          -1 IRanGd=           0 AccXCQ= 0.00D+00.
 Generated NRdTot=       0 NPtTot=           0 NUsed=           0 NTot=          32
 NSgBfM=   115   115   115   115   115 MxSgAt=    23 MxSgA2=    23.
 Leave Link  302 at Thu Mar 12 19:13:01 2020, MaxMem=    33554432 cpu:         0.3
 (Enter /usr/local/gaussian09d01/g09/l303.exe)
 DipDrv:  MaxL=1.
 Leave Link  303 at Thu Mar 12 19:13:01 2020, MaxMem=    33554432 cpu:         0.0
 (Enter /usr/local/gaussian09d01/g09/l401.exe)
 ExpMin= 1.61D-01 ExpMax= 5.48D+03 ExpMxC= 8.25D+02 IAcc=1 IRadAn=         1 AccDes= 0.00D+00
 Harris functional with IExCor= 1009 and IRadAn=       1 diagonalized for initial guess.
 HarFok:  IExCor= 1009 AccDes= 0.00D+00 IRadAn=         1 IDoV= 1 UseB2=F ITyADJ=14
 ICtDFT=  3500011 ScaDFX=  1.000000  1.000000  1.000000  1.000000
 FoFCou: FMM=F IPFlag=           0 FMFlag=      100000 FMFlg1=           0
         NFxFlg=           0 DoJE=T BraDBF=F KetDBF=T FulRan=T
         wScrn=  0.000000 ICntrl=     500 IOpCl=  0 I1Cent=   200000004 NGrid=           0
         NMat0=    1 NMatS0=      1 NMatT0=    0 NMatD0=    1 NMtDS0=    0 NMtDT0=    0
 Petite list used in FoFCou.
 Harris En= -532.598325207380    
 JPrj=0 DoOrth=F DoCkMO=F.
 Leave Link  401 at Thu Mar 12 19:13:02 2020, MaxMem=    33554432 cpu:         0.8
 (Enter /usr/local/gaussian09d01/g09/l502.exe)
 Closed shell SCF:
 Using DIIS extrapolation, IDIIS=  1040.
 Integral symmetry usage will be decided dynamically.
 Keep R1 ints in memory in canonical form, NReq=24030401.
 IVT=       60528 IEndB=       60528 NGot=    33554432 MDV=    10465614
 LenX=    10465614 LenY=    10451717
 Requested convergence on RMS density matrix=1.00D-08 within 128 cycles.
 Requested convergence on MAX density matrix=1.00D-06.
 Requested convergence on             energy=1.00D-06.
 No special actions if energy rises.
 FoFCou: FMM=F IPFlag=           0 FMFlag=           0 FMFlg1=           0
         NFxFlg=           0 DoJE=F BraDBF=F KetDBF=F FulRan=T
         wScrn=  0.000000 ICntrl=     600 IOpCl=  0 I1Cent=           0 NGrid=           0
         NMat0=    1 NMatS0=   6786 NMatT0=    0 NMatD0=    1 NMtDS0=    0 NMtDT0=    0
 Symmetry not used in FoFCou.
 Integral accuracy reduced to 1.0D-05 until final iterations.

 Cycle   1  Pass 0  IDiag  1:
 E= -532.432002495235    
 DIIS: error= 5.89D-02 at cycle   1 NSaved=   1.
 NSaved= 1 IEnMin= 1 EnMin= -532.432002495235     IErMin= 1 ErrMin= 5.89D-02
 ErrMax= 5.89D-02  0.00D+00 EMaxC= 1.00D-01 BMatC= 3.34D-01 BMatP= 3.34D-01
 IDIUse=3 WtCom= 4.11D-01 WtEn= 5.89D-01
 Coeff-Com:  0.100D+01
 Coeff-En:   0.100D+01
 Coeff:      0.100D+01
 Gap=     0.051 Goal=   None    Shift=    0.000
 GapD=    0.051 DampG=0.500 DampE=0.500 DampFc=0.2500 IDamp=-1.
 Damping current iteration by 2.50D-01
 RMSDP=9.38D-03 MaxDP=1.73D-01              OVMax= 3.50D-01

 Cycle   2  Pass 0  IDiag  1:
 E= -532.543384068627     Delta-E=       -0.111381573392 Rises=F Damp=T
 DIIS: error= 3.22D-02 at cycle   2 NSaved=   2.
 NSaved= 2 IEnMin= 2 EnMin= -532.543384068627     IErMin= 2 ErrMin= 3.22D-02
 ErrMax= 3.22D-02  0.00D+00 EMaxC= 1.00D-01 BMatC= 8.52D-02 BMatP= 3.34D-01
 IDIUse=3 WtCom= 6.78D-01 WtEn= 3.22D-01
 Coeff-Com: -0.814D+00 0.181D+01
 Coeff-En:   0.000D+00 0.100D+01
 Coeff:     -0.552D+00 0.155D+01
 Gap=     0.172 Goal=   None    Shift=    0.000
 RMSDP=3.31D-03 MaxDP=6.16D-02 DE=-1.11D-01 OVMax= 2.19D-01

 Cycle   3  Pass 0  IDiag  1:
 E= -532.728016106956     Delta-E=       -0.184632038329 Rises=F Damp=F
 DIIS: error= 1.51D-02 at cycle   3 NSaved=   3.
 NSaved= 3 IEnMin= 3 EnMin= -532.728016106956     IErMin= 3 ErrMin= 1.51D-02
 ErrMax= 1.51D-02  0.00D+00 EMaxC= 1.00D-01 BMatC= 1.54D-02 BMatP= 8.52D-02
 IDIUse=3 WtCom= 8.49D-01 WtEn= 1.51D-01
 Coeff-Com: -0.237D+00 0.648D+00 0.589D+00
 Coeff-En:   0.000D+00 0.000D+00 0.100D+01
 Coeff:     -0.201D+00 0.550D+00 0.651D+00
 Gap=     0.195 Goal=   None    Shift=    0.000
 RMSDP=1.17D-03 MaxDP=2.17D-02 DE=-1.85D-01 OVMax= 3.75D-02

 Cycle   4  Pass 0  IDiag  1:
 E= -532.738624466257     Delta-E=       -0.010608359301 Rises=F Damp=F
 DIIS: error= 5.43D-03 at cycle   4 NSaved=   4.
 NSaved= 4 IEnMin= 4 EnMin= -532.738624466257     IErMin= 4 ErrMin= 5.43D-03
 ErrMax= 5.43D-03  0.00D+00 EMaxC= 1.00D-01 BMatC= 4.19D-03 BMatP= 1.54D-02
 IDIUse=3 WtCom= 9.46D-01 WtEn= 5.43D-02
 Coeff-Com:  0.512D-01-0.386D-01 0.359D+00 0.628D+00
 Coeff-En:   0.000D+00 0.000D+00 0.173D+00 0.827D+00
 Coeff:      0.484D-01-0.365D-01 0.349D+00 0.639D+00
 Gap=     0.194 Goal=   None    Shift=    0.000
 RMSDP=4.90D-04 MaxDP=1.36D-02 DE=-1.06D-02 OVMax= 1.86D-02

 Cycle   5  Pass 0  IDiag  1:
 E= -532.741930273481     Delta-E=       -0.003305807224 Rises=F Damp=F
 DIIS: error= 1.38D-03 at cycle   5 NSaved=   5.
 NSaved= 5 IEnMin= 5 EnMin= -532.741930273481     IErMin= 5 ErrMin= 1.38D-03
 ErrMax= 1.38D-03  0.00D+00 EMaxC= 1.00D-01 BMatC= 3.74D-04 BMatP= 4.19D-03
 IDIUse=3 WtCom= 9.86D-01 WtEn= 1.38D-02
 Coeff-Com:  0.512D-01-0.749D-01 0.163D+00 0.359D+00 0.502D+00
 Coeff-En:   0.000D+00 0.000D+00 0.000D+00 0.000D+00 0.100D+01
 Coeff:      0.505D-01-0.739D-01 0.160D+00 0.355D+00 0.508D+00
 Gap=     0.196 Goal=   None    Shift=    0.000
 RMSDP=1.68D-04 MaxDP=3.41D-03 DE=-3.31D-03 OVMax= 5.70D-03

 Cycle   6  Pass 0  IDiag  1:
 E= -532.742230117208     Delta-E=       -0.000299843726 Rises=F Damp=F
 DIIS: error= 5.66D-04 at cycle   6 NSaved=   6.
 NSaved= 6 IEnMin= 6 EnMin= -532.742230117208     IErMin= 6 ErrMin= 5.66D-04
 ErrMax= 5.66D-04  0.00D+00 EMaxC= 1.00D-01 BMatC= 2.53D-05 BMatP= 3.74D-04
 IDIUse=3 WtCom= 9.94D-01 WtEn= 5.66D-03
 Coeff-Com:  0.253D-01-0.379D-01 0.618D-01 0.127D+00 0.252D+00 0.571D+00
 Coeff-En:   0.000D+00 0.000D+00 0.000D+00 0.000D+00 0.000D+00 0.100D+01
 Coeff:      0.251D-01-0.377D-01 0.615D-01 0.127D+00 0.251D+00 0.574D+00
 Gap=     0.197 Goal=   None    Shift=    0.000
 RMSDP=5.04D-05 MaxDP=1.03D-03 DE=-3.00D-04 OVMax= 2.57D-03

 Cycle   7  Pass 0  IDiag  1:
 E= -532.742256531727     Delta-E=       -0.000026414519 Rises=F Damp=F
 DIIS: error= 3.31D-04 at cycle   7 NSaved=   7.
 NSaved= 7 IEnMin= 7 EnMin= -532.742256531727     IErMin= 7 ErrMin= 3.31D-04
 ErrMax= 3.31D-04  0.00D+00 EMaxC= 1.00D-01 BMatC= 4.45D-06 BMatP= 2.53D-05
 IDIUse=3 WtCom= 9.97D-01 WtEn= 3.31D-03
 Coeff-Com:  0.150D-02-0.239D-02-0.875D-02-0.334D-01-0.115D-01 0.309D+00
 Coeff-Com:  0.746D+00
 Coeff-En:   0.000D+00 0.000D+00 0.000D+00 0.000D+00 0.000D+00 0.000D+00
 Coeff-En:   0.100D+01
 Coeff:      0.150D-02-0.238D-02-0.872D-02-0.333D-01-0.115D-01 0.308D+00
 Coeff:      0.747D+00
 Gap=     0.197 Goal=   None    Shift=    0.000
 RMSDP=2.87D-05 MaxDP=3.85D-04 DE=-2.64D-05 OVMax= 1.16D-03

 Cycle   8  Pass 0  IDiag  1:
 E= -532.742260999490     Delta-E=       -0.000004467763 Rises=F Damp=F
 DIIS: error= 5.56D-05 at cycle   8 NSaved=   8.
 NSaved= 8 IEnMin= 8 EnMin= -532.742260999490     IErMin= 8 ErrMin= 5.56D-05
 ErrMax= 5.56D-05  0.00D+00 EMaxC= 1.00D-01 BMatC= 1.51D-07 BMatP= 4.45D-06
 IDIUse=1 WtCom= 1.00D+00 WtEn= 0.00D+00
 Coeff-Com: -0.230D-02 0.327D-02-0.853D-02-0.211D-01-0.302D-01 0.516D-01
 Coeff-Com:  0.159D+00 0.849D+00
 Coeff:     -0.230D-02 0.327D-02-0.853D-02-0.211D-01-0.302D-01 0.516D-01
 Coeff:      0.159D+00 0.849D+00
 Gap=     0.197 Goal=   None    Shift=    0.000
 RMSDP=8.73D-06 MaxDP=1.36D-04 DE=-4.47D-06 OVMax= 3.55D-04

 Initial convergence to 1.0D-05 achieved.  Increase integral accuracy.
 Cycle   9  Pass 1  IDiag  1:
 E= -532.742401998297     Delta-E=       -0.000140998807 Rises=F Damp=F
 DIIS: error= 1.35D-04 at cycle   1 NSaved=   1.
 NSaved= 1 IEnMin= 1 EnMin= -532.742401998297     IErMin= 1 ErrMin= 1.35D-04
 ErrMax= 1.35D-04  0.00D+00 EMaxC= 1.00D-01 BMatC= 1.92D-06 BMatP= 1.92D-06
 IDIUse=3 WtCom= 9.99D-01 WtEn= 1.35D-03
 Coeff-Com:  0.100D+01
 Coeff-En:   0.100D+01
 Coeff:      0.100D+01
 Gap=     0.197 Goal=   None    Shift=    0.000
 RMSDP=8.73D-06 MaxDP=1.36D-04 DE=-1.41D-04 OVMax= 1.93D-04

 Cycle  10  Pass 1  IDiag  1:
 E= -532.742403731837     Delta-E=       -0.000001733540 Rises=F Damp=F
 DIIS: error= 7.69D-05 at cycle   2 NSaved=   2.
 NSaved= 2 IEnMin= 2 EnMin= -532.742403731837     IErMin= 2 ErrMin= 7.69D-05
 ErrMax= 7.69D-05  0.00D+00 EMaxC= 1.00D-01 BMatC= 3.93D-07 BMatP= 1.92D-06
 IDIUse=1 WtCom= 1.00D+00 WtEn= 0.00D+00
 Coeff-Com:  0.239D+00 0.761D+00
 Coeff:      0.239D+00 0.761D+00
 Gap=     0.197 Goal=   None    Shift=    0.000
 RMSDP=8.03D-06 MaxDP=1.28D-04 DE=-1.73D-06 OVMax= 3.14D-04

 Cycle  11  Pass 1  IDiag  1:
 E= -532.742403959594     Delta-E=       -0.000000227756 Rises=F Damp=F
 DIIS: error= 4.56D-05 at cycle   3 NSaved=   3.
 NSaved= 3 IEnMin= 3 EnMin= -532.742403959594     IErMin= 3 ErrMin= 4.56D-05
 ErrMax= 4.56D-05  0.00D+00 EMaxC= 1.00D-01 BMatC= 1.91D-07 BMatP= 3.93D-07
 IDIUse=1 WtCom= 1.00D+00 WtEn= 0.00D+00
 Coeff-Com: -0.246D-01 0.400D+00 0.625D+00
 Coeff:     -0.246D-01 0.400D+00 0.625D+00
 Gap=     0.197 Goal=   None    Shift=    0.000
 RMSDP=4.68D-06 MaxDP=9.75D-05 DE=-2.28D-07 OVMax= 1.91D-04

 Cycle  12  Pass 1  IDiag  1:
 E= -532.742404115952     Delta-E=       -0.000000156358 Rises=F Damp=F
 DIIS: error= 1.97D-05 at cycle   4 NSaved=   4.
 NSaved= 4 IEnMin= 4 EnMin= -532.742404115952     IErMin= 4 ErrMin= 1.97D-05
 ErrMax= 1.97D-05  0.00D+00 EMaxC= 1.00D-01 BMatC= 3.63D-08 BMatP= 1.91D-07
 IDIUse=1 WtCom= 1.00D+00 WtEn= 0.00D+00
 Coeff-Com: -0.316D-01 0.196D+00 0.401D+00 0.434D+00
 Coeff:     -0.316D-01 0.196D+00 0.401D+00 0.434D+00
 Gap=     0.197 Goal=   None    Shift=    0.000
 RMSDP=1.29D-06 MaxDP=3.88D-05 DE=-1.56D-07 OVMax= 6.21D-05

 Cycle  13  Pass 1  IDiag  1:
 E= -532.742404150074     Delta-E=       -0.000000034122 Rises=F Damp=F
 DIIS: error= 2.13D-06 at cycle   5 NSaved=   5.
 NSaved= 5 IEnMin= 5 EnMin= -532.742404150074     IErMin= 5 ErrMin= 2.13D-06
 ErrMax= 2.13D-06  0.00D+00 EMaxC= 1.00D-01 BMatC= 6.74D-10 BMatP= 3.63D-08
 IDIUse=1 WtCom= 1.00D+00 WtEn= 0.00D+00
 Coeff-Com: -0.111D-01 0.347D-01 0.100D+00 0.139D+00 0.738D+00
 Coeff:     -0.111D-01 0.347D-01 0.100D+00 0.139D+00 0.738D+00
 Gap=     0.197 Goal=   None    Shift=    0.000
 RMSDP=3.40D-07 MaxDP=6.43D-06 DE=-3.41D-08 OVMax= 7.90D-06

 Cycle  14  Pass 1  IDiag  1:
 E= -532.742404150708     Delta-E=       -0.000000000635 Rises=F Damp=F
 DIIS: error= 1.06D-06 at cycle   6 NSaved=   6.
 NSaved= 6 IEnMin= 6 EnMin= -532.742404150708     IErMin= 6 ErrMin= 1.06D-06
 ErrMax= 1.06D-06  0.00D+00 EMaxC= 1.00D-01 BMatC= 1.88D-10 BMatP= 6.74D-10
 IDIUse=1 WtCom= 1.00D+00 WtEn= 0.00D+00
 Coeff-Com:  0.115D-03-0.137D-01-0.151D-01-0.756D-02 0.354D+00 0.682D+00
 Coeff:      0.115D-03-0.137D-01-0.151D-01-0.756D-02 0.354D+00 0.682D+00
 Gap=     0.197 Goal=   None    Shift=    0.000
 RMSDP=1.44D-07 MaxDP=2.67D-06 DE=-6.35D-10 OVMax= 6.09D-06

 Cycle  15  Pass 1  IDiag  1:
 E= -532.742404150895     Delta-E=       -0.000000000186 Rises=F Damp=F
 DIIS: error= 3.20D-07 at cycle   7 NSaved=   7.
 NSaved= 7 IEnMin= 7 EnMin= -532.742404150895     IErMin= 7 ErrMin= 3.20D-07
 ErrMax= 3.20D-07  0.00D+00 EMaxC= 1.00D-01 BMatC= 5.87D-12 BMatP= 1.88D-10
 IDIUse=1 WtCom= 1.00D+00 WtEn= 0.00D+00
 Coeff-Com:  0.748D-03-0.408D-02-0.107D-01-0.950D-02-0.201D-01 0.952D-01
 Coeff-Com:  0.948D+00
 Coeff:      0.748D-03-0.408D-02-0.107D-01-0.950D-02-0.201D-01 0.952D-01
 Coeff:      0.948D+00
 Gap=     0.197 Goal=   None    Shift=    0.000
 RMSDP=5.89D-08 MaxDP=8.73D-07 DE=-1.86D-10 OVMax= 3.49D-06

 Cycle  16  Pass 1  IDiag  1:
 E= -532.742404150914     Delta-E=       -0.000000000019 Rises=F Damp=F
 DIIS: error= 1.74D-07 at cycle   8 NSaved=   8.
 NSaved= 8 IEnMin= 8 EnMin= -532.742404150914     IErMin= 8 ErrMin= 1.74D-07
 ErrMax= 1.74D-07  0.00D+00 EMaxC= 1.00D-01 BMatC= 1.77D-12 BMatP= 5.87D-12
 IDIUse=1 WtCom= 1.00D+00 WtEn= 0.00D+00
 Coeff-Com:  0.368D-03-0.106D-02-0.392D-02-0.490D-02-0.342D-01-0.718D-02
 Coeff-Com:  0.441D+00 0.610D+00
 Coeff:      0.368D-03-0.106D-02-0.392D-02-0.490D-02-0.342D-01-0.718D-02
 Coeff:      0.441D+00 0.610D+00
 Gap=     0.197 Goal=   None    Shift=    0.000
 RMSDP=1.83D-08 MaxDP=3.35D-07 DE=-1.91D-11 OVMax= 8.02D-07

 Cycle  17  Pass 1  IDiag  1:
 E= -532.742404150922     Delta-E=       -0.000000000008 Rises=F Damp=F
 DIIS: error= 5.83D-08 at cycle   9 NSaved=   9.
 NSaved= 9 IEnMin= 9 EnMin= -532.742404150922     IErMin= 9 ErrMin= 5.83D-08
 ErrMax= 5.83D-08  0.00D+00 EMaxC= 1.00D-01 BMatC= 3.09D-13 BMatP= 1.77D-12
 IDIUse=1 WtCom= 1.00D+00 WtEn= 0.00D+00
 Coeff-Com:  0.873D-05 0.420D-03 0.686D-03-0.617D-03-0.122D-01-0.259D-01
 Coeff-Com:  0.190D-01 0.285D+00 0.734D+00
 Coeff:      0.873D-05 0.420D-03 0.686D-03-0.617D-03-0.122D-01-0.259D-01
 Coeff:      0.190D-01 0.285D+00 0.734D+00
 Gap=     0.197 Goal=   None    Shift=    0.000
 RMSDP=8.85D-09 MaxDP=2.13D-07 DE=-7.96D-12 OVMax= 3.61D-07

 SCF Done:  E(RM062X) =  -532.742404151     A.U. after   17 cycles
            NFock= 17  Conv=0.88D-08     -V/T= 2.0061
 KE= 5.295298764848D+02 PE=-2.397661431778D+03 EE= 7.527724123646D+02
 Leave Link  502 at Thu Mar 12 19:13:56 2020, MaxMem=    33554432 cpu:        53.9
 (Enter /usr/local/gaussian09d01/g09/l601.exe)
 Copying SCF densities to generalized density rwf, IOpCl= 0 IROHF=0.

 **********************************************************************

            Population analysis using the SCF density.

 **********************************************************************

 Orbital symmetries:
       Occupied  (A) (A) (A) (A) (A) (A) (A) (A) (A) (A) (A) (A)
                 (A) (A) (A) (A) (A) (A) (A) (A) (A) (A) (A) (A)
                 (A) (A) (A) (A) (A) (A) (A) (A) (A) (A) (A) (A)
                 (A) (A) (A) (A)
       Virtual   (A) (A) (A) (A) (A) (A) (A) (A) (A) (A) (A) (A)
                 (A) (A) (A) (A) (A) (A) (A) (A) (A) (A) (A) (A)
                 (A) (A) (A) (A) (A) (A) (A) (A) (A) (A) (A) (A)
                 (A) (A) (A) (A) (A) (A) (A) (A) (A) (A) (A) (A)
                 (A) (A) (A) (A) (A) (A) (A) (A) (A) (A) (A) (A)
                 (A) (A) (A) (A) (A) (A) (A) (A) (A) (A) (A) (A)
                 (A) (A) (A) (A)
 The electronic state is 1-A.
 Alpha  occ. eigenvalues --  -19.86496 -19.83643 -19.79999 -14.98950 -14.93154
 Alpha  occ. eigenvalues --  -10.87180 -10.85686 -10.77482 -10.74823 -10.62904
 Alpha  occ. eigenvalues --   -1.40825  -1.39778  -1.30753  -1.22101  -1.17619
 Alpha  occ. eigenvalues --   -1.05054  -0.95766  -0.91066  -0.89777  -0.85314
 Alpha  occ. eigenvalues --   -0.78849  -0.76951  -0.75484  -0.73205  -0.72394
 Alpha  occ. eigenvalues --   -0.71284  -0.68692  -0.66190  -0.64173  -0.63752
 Alpha  occ. eigenvalues --   -0.60824  -0.60222  -0.57808  -0.56914  -0.56691
 Alpha  occ. eigenvalues --   -0.55748  -0.54175  -0.52891  -0.51040  -0.48512
 Alpha virt. eigenvalues --   -0.28773  -0.13871  -0.11726  -0.05575  -0.02182
 Alpha virt. eigenvalues --   -0.00197   0.01530   0.02395   0.05119   0.05647
 Alpha virt. eigenvalues --    0.07357   0.07526   0.08135   0.11210   0.11404
 Alpha virt. eigenvalues --    0.11674   0.12656   0.13684   0.16577   0.19300
 Alpha virt. eigenvalues --    0.22169   0.25572   0.29257   0.39982   0.43389
 Alpha virt. eigenvalues --    0.44493   0.46563   0.48338   0.48402   0.48624
 Alpha virt. eigenvalues --    0.50550   0.52538   0.52756   0.56225   0.58948
 Alpha virt. eigenvalues --    0.59271   0.61814   0.62885   0.65010   0.65786
 Alpha virt. eigenvalues --    0.68219   0.69445   0.71694   0.75404   0.76040
 Alpha virt. eigenvalues --    0.77743   0.79207   0.81610   0.83178   0.84065
 Alpha virt. eigenvalues --    0.85412   0.87742   0.88376   0.88401   0.90524
 Alpha virt. eigenvalues --    0.92112   0.92700   0.94768   0.95369   0.97067
 Alpha virt. eigenvalues --    1.02576   1.02955   1.04334   1.10030   1.12235
 Alpha virt. eigenvalues --    1.13039   1.18604   1.20604   1.29839   1.34837
 Alpha virt. eigenvalues --    1.41354   1.52971   1.62656   1.75057   1.77068
 Alpha virt. eigenvalues --    1.87046
          Condensed to atoms (all electrons):
               1          2          3          4          5          6
     1  C    5.188992   0.375358   0.371827   0.000000   0.370304   0.370840
     2  H    0.375358   0.470650  -0.017971   0.000000  -0.019910  -0.020390
     3  H    0.371827  -0.017971   0.519712   0.000000  -0.029438  -0.030036
     4  H    0.000000   0.000000   0.000000   0.301812   0.000000   0.000000
     5  H    0.370304  -0.019910  -0.029438   0.000000   0.538218  -0.032240
     6  H    0.370840  -0.020390  -0.030036   0.000000  -0.032240   0.545846
     7  C    0.000000   0.000000  -0.000001  -0.005349   0.000000   0.000000
     8  C   -0.000005   0.000001   0.000084   0.000156  -0.000011  -0.000007
     9  C    0.000246   0.000038   0.001497   0.000040  -0.000152  -0.000130
    10  N    0.000000   0.000000  -0.000001   0.000027   0.000000   0.000000
    11  O   -0.001326   0.000015   0.003337   0.000363   0.000043   0.000016
    12  O   -0.005190   0.000175  -0.001632   0.000000  -0.000758  -0.000629
    13  C    0.000000   0.000000   0.000000  -0.015275   0.000000   0.000000
    14  H    0.000000   0.000000   0.000000   0.000004   0.000000   0.000000
    15  H    0.000000   0.000000   0.000000   0.003534   0.000000   0.000000
    16  H    0.000001   0.000000  -0.000002   0.000004   0.000000   0.000000
    17  H    0.000000   0.000000   0.000000  -0.000061   0.000000   0.000000
    18  H   -0.000001   0.000000   0.000000   0.000000   0.000000   0.000000
    19  H    0.026746  -0.000930   0.002070   0.000000   0.005150   0.004672
    20  N    0.000000   0.000000   0.000000   0.005534   0.000000   0.000000
    21  O    0.000000   0.000000   0.000000   0.254703   0.000000   0.000000
    22  H    0.000000   0.000000   0.000000  -0.000001   0.000000   0.000000
    23  H    0.000000   0.000000   0.000000   0.000065   0.000000   0.000000
               7          8          9         10         11         12
     1  C    0.000000  -0.000005   0.000246   0.000000  -0.001326  -0.005190
     2  H    0.000000   0.000001   0.000038   0.000000   0.000015   0.000175
     3  H   -0.000001   0.000084   0.001497  -0.000001   0.003337  -0.001632
     4  H   -0.005349   0.000156   0.000040   0.000027   0.000363   0.000000
     5  H    0.000000  -0.000011  -0.000152   0.000000   0.000043  -0.000758
     6  H    0.000000  -0.000007  -0.000130   0.000000   0.000016  -0.000629
     7  C    5.449587   0.223721  -0.047564  -0.077976   0.008010   0.005322
     8  C    0.223721   5.573129   0.151590   0.190903  -0.124008  -0.148929
     9  C   -0.047564   0.151590   4.752378  -0.049242   0.497992   0.192579
    10  N   -0.077976   0.190903  -0.049242   7.090894   0.002175   0.001905
    11  O    0.008010  -0.124008   0.497992   0.002175   8.119927  -0.108487
    12  O    0.005322  -0.148929   0.192579   0.001905  -0.108487   8.422910
    13  C    0.250935  -0.018996  -0.007968   0.000717   0.009124  -0.000537
    14  H    0.376687  -0.027956   0.005644  -0.001414   0.000409  -0.000027
    15  H    0.363832  -0.028182  -0.002177   0.003913   0.004785   0.000133
    16  H   -0.043334   0.384357  -0.026953  -0.035998   0.001038   0.000905
    17  H   -0.007307  -0.010916  -0.000799   0.083412   0.000204  -0.000048
    18  H    0.004866  -0.034061  -0.007482   0.319490   0.000227   0.013463
    19  H   -0.000159   0.005476  -0.018628  -0.000120  -0.000557   0.237156
    20  N   -0.106212   0.001751   0.000262  -0.067369  -0.003416   0.000049
    21  O   -0.066339   0.002437  -0.000510  -0.000120  -0.001345  -0.000001
    22  H   -0.000902  -0.028707   0.004112   0.320888  -0.000080  -0.000009
    23  H    0.001017  -0.000031  -0.000012   0.000402   0.000004   0.000000
              13         14         15         16         17         18
     1  C    0.000000   0.000000   0.000000   0.000001   0.000000  -0.000001
     2  H    0.000000   0.000000   0.000000   0.000000   0.000000   0.000000
     3  H    0.000000   0.000000   0.000000  -0.000002   0.000000   0.000000
     4  H   -0.015275   0.000004   0.003534   0.000004  -0.000061   0.000000
     5  H    0.000000   0.000000   0.000000   0.000000   0.000000   0.000000
     6  H    0.000000   0.000000   0.000000   0.000000   0.000000   0.000000
     7  C    0.250935   0.376687   0.363832  -0.043334  -0.007307   0.004866
     8  C   -0.018996  -0.027956  -0.028182   0.384357  -0.010916  -0.034061
     9  C   -0.007968   0.005644  -0.002177  -0.026953  -0.000799  -0.007482
    10  N    0.000717  -0.001414   0.003913  -0.035998   0.083412   0.319490
    11  O    0.009124   0.000409   0.004785   0.001038   0.000204   0.000227
    12  O   -0.000537  -0.000027   0.000133   0.000905  -0.000048   0.013463
    13  C    4.713634  -0.035942  -0.030638   0.004505  -0.034083   0.000118
    14  H   -0.035942   0.447087  -0.016953  -0.002909  -0.000379  -0.000058
    15  H   -0.030638  -0.016953   0.470889  -0.000668   0.000285  -0.000099
    16  H    0.004505  -0.002909  -0.000668   0.462515   0.000966   0.001003
    17  H   -0.034083  -0.000379   0.000285   0.000966   0.290858  -0.000333
    18  H    0.000118  -0.000058  -0.000099   0.001003  -0.000333   0.336901
    19  H   -0.000012   0.000002  -0.000003  -0.000244  -0.000019  -0.000270
    20  N    0.334741  -0.001798   0.004494  -0.000205   0.259139   0.000316
    21  O    0.292216   0.001047  -0.002302  -0.000064   0.001554   0.000002
    22  H   -0.000307   0.001619  -0.000073  -0.003644  -0.001388  -0.020822
    23  H    0.003291  -0.000017  -0.000017   0.000001   0.000744  -0.000004
              19         20         21         22         23
     1  C    0.026746   0.000000   0.000000   0.000000   0.000000
     2  H   -0.000930   0.000000   0.000000   0.000000   0.000000
     3  H    0.002070   0.000000   0.000000   0.000000   0.000000
     4  H    0.000000   0.005534   0.254703  -0.000001   0.000065
     5  H    0.005150   0.000000   0.000000   0.000000   0.000000
     6  H    0.004672   0.000000   0.000000   0.000000   0.000000
     7  C   -0.000159  -0.106212  -0.066339  -0.000902   0.001017
     8  C    0.005476   0.001751   0.002437  -0.028707  -0.000031
     9  C   -0.018628   0.000262  -0.000510   0.004112  -0.000012
    10  N   -0.000120  -0.067369  -0.000120   0.320888   0.000402
    11  O   -0.000557  -0.003416  -0.001345  -0.000080   0.000004
    12  O    0.237156   0.000049  -0.000001  -0.000009   0.000000
    13  C   -0.000012   0.334741   0.292216  -0.000307   0.003291
    14  H    0.000002  -0.001798   0.001047   0.001619  -0.000017
    15  H   -0.000003   0.004494  -0.002302  -0.000073  -0.000017
    16  H   -0.000244  -0.000205  -0.000064  -0.003644   0.000001
    17  H   -0.000019   0.259139   0.001554  -0.001388   0.000744
    18  H   -0.000270   0.000316   0.000002  -0.020822  -0.000004
    19  H    0.275569   0.000011   0.000000   0.000017   0.000000
    20  N    0.000011   7.053309  -0.109345   0.000884   0.154923
    21  O    0.000000  -0.109345   8.178573   0.000002  -0.002071
    22  H    0.000017   0.000884   0.000002   0.368641  -0.000005
    23  H    0.000000   0.154923  -0.002071  -0.000005   0.468716
 Mulliken charges:
               1
     1  C   -0.697794
     2  H    0.212964
     3  H    0.180553
     4  H    0.454444
     5  H    0.168792
     6  H    0.162057
     7  C   -0.328836
     8  C   -0.111796
     9  C    0.555241
    10  N   -0.782486
    11  O   -0.408450
    12  O   -0.608352
    13  C    0.534480
    14  H    0.254956
    15  H    0.229245
    16  H    0.258727
    17  H    0.418172
    18  H    0.386744
    19  H    0.464070
    20  N   -0.527067
    21  O   -0.548436
    22  H    0.359774
    23  H    0.372997
 Sum of Mulliken charges =   1.00000
 Mulliken charges with hydrogens summed into heavy atoms:
               1
     1  C    0.026572
     7  C    0.155366
     8  C    0.146931
     9  C    0.555241
    10  N   -0.035968
    11  O   -0.408450
    12  O   -0.144282
    13  C    0.534480
    20  N    0.264102
    21  O   -0.093992
 Electronic spatial extent (au):  <R**2>=           2010.6105
 Charge=              1.0000 electrons
 Dipole moment (field-independent basis, Debye):
    X=              4.9147    Y=              1.3487    Z=              1.2832  Tot=              5.2554
 Quadrupole moment (field-independent basis, Debye-Ang):
   XX=            -33.3809   YY=            -46.1751   ZZ=            -41.3019
   XY=             -2.8419   XZ=              0.4652   YZ=             -3.4703
 Traceless Quadrupole moment (field-independent basis, Debye-Ang):
   XX=              6.9051   YY=             -5.8891   ZZ=             -1.0159
   XY=             -2.8419   XZ=              0.4652   YZ=             -3.4703
 Octapole moment (field-independent basis, Debye-Ang**2):
  XXX=            -20.2609  YYY=             14.9827  ZZZ=             36.2495  XYY=             27.6921
  XXY=            -22.7221  XXZ=              8.7054  XZZ=             41.1417  YZZ=            -23.1455
  YYZ=              4.5086  XYZ=             -4.8009
 Hexadecapole moment (field-independent basis, Debye-Ang**3):
 XXXX=          -1448.0924 YYYY=           -434.2421 ZZZZ=           -127.7774 XXXY=             14.6154
 XXXZ=             -8.0696 YYYX=            -19.3306 YYYZ=             25.0079 ZZZX=             88.3934
 ZZZY=            -59.8814 XXYY=           -322.5830 XXZZ=           -250.5170 YYZZ=            -80.3664
 XXYZ=            -17.0441 YYXZ=             -2.1120 ZZXY=            -73.2574
 N-N= 5.826167387776D+02 E-N=-2.397661428832D+03  KE= 5.295298764848D+02
 No NMR shielding tensors so no spin-rotation constants.
 Leave Link  601 at Thu Mar 12 19:13:56 2020, MaxMem=    33554432 cpu:         0.1
 (Enter /usr/local/gaussian09d01/g09/l9999.exe)
 1\1\GINC-KARURA\SP\RM062X\6-31G\C5H13N2O3(1+)\RTAKE\12-Mar-2020\0\\#p 
 M062X/6-31G\\chk calc\\1,1\C,0,3.824482709,-1.14219544,1.17225369\H,0,
 4.799113079,-1.62961423,1.173808707\H,0,3.053614027,-1.916312598,1.160
 804944\H,0,-2.540416453,-2.844981592,-1.014302773\H,0,3.75960642,-0.53
 291794,2.07824618\H,0,3.765323683,-0.52154146,0.273951194\C,0,-2.40154
 2122,-0.705499021,0.492562549\C,0,-1.33365594,0.193207044,1.141270536\
 C,0,0.021967089,-0.47033751,0.950186539\N,0,-1.303304814,1.529148773,0
 .515945207\O,0,0.155929117,-1.611462803,0.51692019\O,0,1.024922388,0.3
 53392554,1.298656\C,0,-2.121889445,-0.918337302,-0.967112723\H,0,-3.39
 229932,-0.247402335,0.596496855\H,0,-2.419176945,-1.669900059,1.004436
 439\H,0,-1.526304416,0.239474424,2.221387894\H,0,-1.503902114,0.960750
 702,-1.170400229\H,0,-0.410560182,1.997532273,0.666150752\H,0,1.924402
 159,-0.039925506,1.230818645\N,0,-1.700457396,0.069239192,-1.694919761
 \O,0,-2.336854815,-2.071648312,-1.575178364\H,0,-2.071900591,2.1285565
 43,0.807834339\H,0,-1.328360073,-0.178260715,-3.675549144\\Version=ES6
 4L-G09RevD.01\State=1-A\HF=-532.7424042\RMSD=8.849e-09\Dipole=-1.72319
 95,0.7219502,-0.8857254\Quadrupole=3.4387361,-5.6877636,2.2490275,1.65
 30619,2.6296907,0.1558786\PG=C01 [X(C5H13N2O3)]\\@


 Experience is what you get when you don't get what you want.
 -- Dan Stanford
 Job cpu time:       0 days  0 hours  0 minutes 55.3 seconds.
 File lengths (MBytes):  RWF=      7 Int=      0 D2E=      0 Chk=      2 Scr=      1
 Normal termination of Gaussian 09 at Thu Mar 12 19:13:56 2020.
