 Entering Gaussian System, Link 0=g09
 Input=./n20_h23_07.gjf
 Output=./n20_h23_07.log
 Initial command:
 /usr/local/gaussian09d01/g09/l1.exe "/scr/Gau-19643.inp" -scrdir="/scr/"
 Entering Link 1 = /usr/local/gaussian09d01/g09/l1.exe PID=     19644.
  
 Copyright (c) 1988,1990,1992,1993,1995,1998,2003,2009,2013,
            Gaussian, Inc.  All Rights Reserved.
  
 This is part of the Gaussian(R) 09 program.  It is based on
 the Gaussian(R) 03 system (copyright 2003, Gaussian, Inc.),
 the Gaussian(R) 98 system (copyright 1998, Gaussian, Inc.),
 the Gaussian(R) 94 system (copyright 1995, Gaussian, Inc.),
 the Gaussian 92(TM) system (copyright 1992, Gaussian, Inc.),
 the Gaussian 90(TM) system (copyright 1990, Gaussian, Inc.),
 the Gaussian 88(TM) system (copyright 1988, Gaussian, Inc.),
 the Gaussian 86(TM) system (copyright 1986, Carnegie Mellon
 University), and the Gaussian 82(TM) system (copyright 1983,
 Carnegie Mellon University). Gaussian is a federally registered
 trademark of Gaussian, Inc.
  
 This software contains proprietary and confidential information,
 including trade secrets, belonging to Gaussian, Inc.
  
 This software is provided under written license and may be
 used, copied, transmitted, or stored only in accord with that
 written license.
  
 The following legend is applicable only to US Government
 contracts under FAR:
  
                    RESTRICTED RIGHTS LEGEND
  
 Use, reproduction and disclosure by the US Government is
 subject to restrictions as set forth in subparagraphs (a)
 and (c) of the Commercial Computer Software - Restricted
 Rights clause in FAR 52.227-19.
  
 Gaussian, Inc.
 340 Quinnipiac St., Bldg. 40, Wallingford CT 06492
  
  
 ---------------------------------------------------------------
 Warning -- This program may not be used in any manner that
 competes with the business of Gaussian, Inc. or will provide
 assistance to any competitor of Gaussian, Inc.  The licensee
 of this program is prohibited from giving any competitor of
 Gaussian, Inc. access to this program.  By using this program,
 the user acknowledges that Gaussian, Inc. is engaged in the
 business of creating and licensing software in the field of
 computational chemistry and represents and warrants to the
 licensee that it is not a competitor of Gaussian, Inc. and that
 it will not use this program in any manner prohibited above.
 ---------------------------------------------------------------
  

 Cite this work as:
 Gaussian 09, Revision D.01,
 M. J. Frisch, G. W. Trucks, H. B. Schlegel, G. E. Scuseria, 
 M. A. Robb, J. R. Cheeseman, G. Scalmani, V. Barone, B. Mennucci, 
 G. A. Petersson, H. Nakatsuji, M. Caricato, X. Li, H. P. Hratchian, 
 A. F. Izmaylov, J. Bloino, G. Zheng, J. L. Sonnenberg, M. Hada, 
 M. Ehara, K. Toyota, R. Fukuda, J. Hasegawa, M. Ishida, T. Nakajima, 
 Y. Honda, O. Kitao, H. Nakai, T. Vreven, J. A. Montgomery, Jr., 
 J. E. Peralta, F. Ogliaro, M. Bearpark, J. J. Heyd, E. Brothers, 
 K. N. Kudin, V. N. Staroverov, T. Keith, R. Kobayashi, J. Normand, 
 K. Raghavachari, A. Rendell, J. C. Burant, S. S. Iyengar, J. Tomasi, 
 M. Cossi, N. Rega, J. M. Millam, M. Klene, J. E. Knox, J. B. Cross, 
 V. Bakken, C. Adamo, J. Jaramillo, R. Gomperts, R. E. Stratmann, 
 O. Yazyev, A. J. Austin, R. Cammi, C. Pomelli, J. W. Ochterski, 
 R. L. Martin, K. Morokuma, V. G. Zakrzewski, G. A. Voth, 
 P. Salvador, J. J. Dannenberg, S. Dapprich, A. D. Daniels, 
 O. Farkas, J. B. Foresman, J. V. Ortiz, J. Cioslowski, 
 and D. J. Fox, Gaussian, Inc., Wallingford CT, 2013.
 
 ******************************************
 Gaussian 09:  ES64L-G09RevD.01 24-Apr-2013
                12-Mar-2020 
 ******************************************
 --------------
 #p M062X/6-31G
 --------------
 1/38=1/1;
 2/12=2,17=6,18=5,40=1/2;
 3/5=1,6=6,11=2,16=1,25=1,30=1,74=-55/1,2,3;
 4//1;
 5/5=2,38=5/2;
 6/7=2,8=2,9=2,10=2,28=1/1;
 99/5=1,9=1/99;
 Leave Link    1 at Thu Mar 12 19:01:42 2020, MaxMem=           0 cpu:         0.0
 (Enter /usr/local/gaussian09d01/g09/l101.exe)
 --------
 chk calc
 --------
 Symbolic Z-matrix:
 Charge =  1 Multiplicity = 1
 C                     3.82448  -1.1422    1.17225 
 H                     4.79911  -1.62961   1.17381 
 H                     3.05361  -1.91631   1.1608 
 H                    -2.54042  -2.84498  -1.0143 
 H                     3.75961  -0.53292   2.07825 
 H                     3.76532  -0.52154   0.27395 
 C                    -2.40154  -0.7055    0.49256 
 C                    -1.33366   0.19321   1.14127 
 C                     0.02197  -0.47034   0.95019 
 N                    -1.3033    1.52915   0.51595 
 O                     0.15593  -1.61146   0.51692 
 O                     1.02492   0.35339   1.29866 
 C                    -2.12189  -0.91834  -0.96711 
 H                    -3.3923   -0.2474    0.5965 
 H                    -2.41918  -1.6699    1.00444 
 H                    -1.5263    0.23947   2.22139 
 H                    -1.5039    0.96075  -1.1704 
 H                    -0.41056   1.99753   0.66615 
 H                     1.9244   -0.03993   1.23082 
 N                    -1.70046   0.06924  -1.69492 
 O                    -2.33685  -2.07165  -1.57518 
 H                    -2.0719    2.12856   0.80783 
 H                    -1.57022  -0.01739  -2.38814 
 
 NAtoms=     23 NQM=       23 NQMF=       0 NMMI=      0 NMMIF=      0
                NMic=       0 NMicF=      0.
                    Isotopes and Nuclear Properties:
 (Nuclear quadrupole moments (NQMom) in fm**2, nuclear magnetic moments (NMagM)
  in nuclear magnetons)

  Atom         1           2           3           4           5           6           7           8           9          10
 IAtWgt=          12           1           1           1           1           1          12          12          12          14
 AtmWgt=  12.0000000   1.0078250   1.0078250   1.0078250   1.0078250   1.0078250  12.0000000  12.0000000  12.0000000  14.0030740
 NucSpn=           0           1           1           1           1           1           0           0           0           2
 AtZEff=   0.0000000   0.0000000   0.0000000   0.0000000   0.0000000   0.0000000   0.0000000   0.0000000   0.0000000   0.0000000
 NQMom=    0.0000000   0.0000000   0.0000000   0.0000000   0.0000000   0.0000000   0.0000000   0.0000000   0.0000000   2.0440000
 NMagM=    0.0000000   2.7928460   2.7928460   2.7928460   2.7928460   2.7928460   0.0000000   0.0000000   0.0000000   0.4037610
 AtZNuc=   6.0000000   1.0000000   1.0000000   1.0000000   1.0000000   1.0000000   6.0000000   6.0000000   6.0000000   7.0000000

  Atom        11          12          13          14          15          16          17          18          19          20
 IAtWgt=          16          16          12           1           1           1           1           1           1          14
 AtmWgt=  15.9949146  15.9949146  12.0000000   1.0078250   1.0078250   1.0078250   1.0078250   1.0078250   1.0078250  14.0030740
 NucSpn=           0           0           0           1           1           1           1           1           1           2
 AtZEff=   0.0000000   0.0000000   0.0000000   0.0000000   0.0000000   0.0000000   0.0000000   0.0000000   0.0000000   0.0000000
 NQMom=    0.0000000   0.0000000   0.0000000   0.0000000   0.0000000   0.0000000   0.0000000   0.0000000   0.0000000   2.0440000
 NMagM=    0.0000000   0.0000000   0.0000000   2.7928460   2.7928460   2.7928460   2.7928460   2.7928460   2.7928460   0.4037610
 AtZNuc=   8.0000000   8.0000000   6.0000000   1.0000000   1.0000000   1.0000000   1.0000000   1.0000000   1.0000000   7.0000000

  Atom        21          22          23
 IAtWgt=          16           1           1
 AtmWgt=  15.9949146   1.0078250   1.0078250
 NucSpn=           0           1           1
 AtZEff=   0.0000000   0.0000000   0.0000000
 NQMom=    0.0000000   0.0000000   0.0000000
 NMagM=    0.0000000   2.7928460   2.7928460
 AtZNuc=   8.0000000   1.0000000   1.0000000
 Leave Link  101 at Thu Mar 12 19:01:42 2020, MaxMem=    33554432 cpu:         0.0
 (Enter /usr/local/gaussian09d01/g09/l202.exe)
                          Input orientation:                          
 ---------------------------------------------------------------------
 Center     Atomic      Atomic             Coordinates (Angstroms)
 Number     Number       Type             X           Y           Z
 ---------------------------------------------------------------------
      1          6           0        3.824483   -1.142195    1.172254
      2          1           0        4.799113   -1.629614    1.173809
      3          1           0        3.053614   -1.916313    1.160805
      4          1           0       -2.540416   -2.844982   -1.014303
      5          1           0        3.759606   -0.532918    2.078246
      6          1           0        3.765324   -0.521541    0.273951
      7          6           0       -2.401542   -0.705499    0.492563
      8          6           0       -1.333656    0.193207    1.141271
      9          6           0        0.021967   -0.470338    0.950187
     10          7           0       -1.303305    1.529149    0.515945
     11          8           0        0.155929   -1.611463    0.516920
     12          8           0        1.024922    0.353393    1.298656
     13          6           0       -2.121889   -0.918337   -0.967113
     14          1           0       -3.392299   -0.247402    0.596497
     15          1           0       -2.419177   -1.669900    1.004436
     16          1           0       -1.526304    0.239474    2.221388
     17          1           0       -1.503902    0.960751   -1.170400
     18          1           0       -0.410560    1.997532    0.666151
     19          1           0        1.924402   -0.039926    1.230819
     20          7           0       -1.700457    0.069239   -1.694920
     21          8           0       -2.336855   -2.071648   -1.575178
     22          1           0       -2.071901    2.128557    0.807834
     23          1           0       -1.570223   -0.017386   -2.388140
 ---------------------------------------------------------------------
                    Distance matrix (angstroms):
                    1          2          3          4          5
     1  C    0.000000
     2  H    1.089717   0.000000
     3  H    1.092532   1.768935   0.000000
     4  H    6.942078   7.754589   6.073442   0.000000
     5  H    1.093732   1.761058   1.803858   7.389167   0.000000
     6  H    1.093462   1.762467   1.799563   6.842538   1.804340
     7  C    6.278222   7.291606   5.627730   2.620556   6.364270
     8  C    5.328288   6.398015   4.868120   3.915783   5.229388
     9  C    3.867794   4.920879   3.365425   4.007987   3.904662
    10  N    5.819023   6.902903   5.591940   4.796365   5.685594
    11  O    3.756056   4.689455   2.983974   3.337138   4.072774
    12  O    3.176523   4.265257   3.047319   5.318930   2.978557
    13  C    6.323476   7.279405   5.684173   1.972143   6.634362
    14  H    7.294799   8.327247   6.682328   3.172979   7.309368
    15  H    6.268167   7.220389   5.480567   2.338979   6.373630
    16  H    5.624999   6.678459   5.171838   4.583883   5.343962
    17  H    6.188869   7.206477   5.872220   3.947446   6.363118
    18  H    5.296189   6.368250   5.250083   5.550689   5.078138
    19  H    2.197438   3.285472   2.191084   5.730926   2.080661
    20  N    6.341389   7.304801   5.890567   3.108288   6.664208
    21  O    6.809871   7.659919   6.047056   0.976762   7.272004
    22  H    6.752626   7.840192   6.538842   5.317497   6.534820
    23  H    6.560827   7.473634   6.130319   3.289985   6.972909
                    6          7          8          9         10
     6  H    0.000000
     7  C    6.173481   0.000000
     8  C    5.221370   1.539115   0.000000
     9  C    3.804292   2.477522   1.521354   0.000000
    10  N    5.473106   2.490045   1.475362   2.437797   0.000000
    11  O    3.778186   2.713305   2.421882   1.227938   3.463063
    12  O    3.053740   3.675826   2.369245   1.343831   2.723175
    13  C    6.029674   1.501385   2.510403   2.910818   2.976530
    14  H    7.170129   1.096474   2.174610   3.439769   2.743450
    15  H    6.332486   1.091969   2.160613   2.720492   3.423114
    16  H    5.689726   2.155888   1.098138   2.125307   2.149773
    17  H    5.661103   2.519443   2.441706   2.978788   1.790831
    18  H    4.892602   3.361625   2.081690   2.521535   1.019283
    19  H    2.129916   4.438671   3.267616   1.970601   3.659389
    20  N    5.839541   2.424215   2.862497   3.202261   2.678990
    21  O    6.561912   2.479133   3.676285   3.808636   4.290310
    22  H    6.432825   2.870528   2.098038   3.340478   1.017462
    23  H    5.984059   3.076205   3.543593   3.726213   3.301019
                   11         12         13         14         15
    11  O    0.000000
    12  O    2.286245   0.000000
    13  C    2.805572   4.080861   0.000000
    14  H    3.802225   4.512852   2.123434   0.000000
    15  H    2.621499   4.005259   2.130782   1.771124   0.000000
    16  H    3.026729   2.715358   3.444094   2.521757   2.433907
    17  H    3.495479   3.586095   1.988519   2.854401   3.533832
    18  H    3.656231   2.272415   3.754796   3.733008   4.195121
    19  H    2.471210   0.984055   4.687748   5.358426   4.644862
    20  N    3.341132   4.058317   1.297157   2.865865   3.290545
    21  O    3.286734   5.043936   1.321393   3.026220   2.612009
    22  H    4.362981   3.603113   3.526542   2.726407   3.819362
    23  H    3.736316   4.523795   1.770697   3.504415   3.867958
                   16         17         18         19         20
    16  H    0.000000
    17  H    3.467704   0.000000
    18  H    2.598926   2.375549   0.000000
    19  H    3.600926   4.303542   3.149942   0.000000
    20  N    3.923872   1.052876   3.310106   4.659557   0.000000
    21  O    4.517986   3.170662   5.029155   5.491796   2.236680
    22  H    2.421661   2.366391   1.672511   4.566362   3.262290
    23  H    4.616888   1.563342   3.838412   5.030882   0.710647
                   21         22         23
    21  O    0.000000
    22  H    4.836390   0.000000
    23  H    2.338509   3.882139   0.000000
 Stoichiometry    C5H13N2O3(1+)
 Framework group  C1[X(C5H13N2O3)]
 Deg. of freedom    63
 Full point group                 C1      NOp   1
 Largest Abelian subgroup         C1      NOp   1
 Largest concise Abelian subgroup C1      NOp   1
                         Standard orientation:                         
 ---------------------------------------------------------------------
 Center     Atomic      Atomic             Coordinates (Angstroms)
 Number     Number       Type             X           Y           Z
 ---------------------------------------------------------------------
      1          6           0       -4.370238   -0.936088    0.322775
      2          1           0       -5.275525   -1.537248    0.403677
      3          1           0       -3.655636   -1.474441   -0.304239
      4          1           0        2.341297   -2.258098   -0.860460
      5          1           0       -4.649459    0.020586   -0.127848
      6          1           0       -3.973468   -0.796297    1.332077
      7          6           0        1.653507    0.268057   -0.973605
      8          6           0        0.423837    1.152321   -0.699992
      9          6           0       -0.762308    0.240262   -0.424805
     10          7           0        0.637913    2.023190    0.471525
     11          8           0       -0.727963   -0.975496   -0.593872
     12          8           0       -1.818837    0.933713    0.032092
     13          6           0        1.944705   -0.636175    0.189032
     14          1           0        2.533765    0.894918   -1.159201
     15          1           0        1.472182   -0.333723   -1.866565
     16          1           0        0.194623    1.722028   -1.610378
     17          1           0        1.457773    0.793363    1.482679
     18          1           0       -0.243324    2.336763    0.876532
     19          1           0       -2.627909    0.396387    0.190361
     20          7           0        1.833759   -0.186673    1.400747
     21          8           0        2.368090   -1.878917    0.039300
     22          1           0        1.242134    2.818536    0.277699
     23          1           0        1.974505   -0.603056    1.959168
 ---------------------------------------------------------------------
 Rotational constants (GHZ):      1.8102058      0.7188305      0.6065382
 Leave Link  202 at Thu Mar 12 19:01:42 2020, MaxMem=    33554432 cpu:         0.0
 (Enter /usr/local/gaussian09d01/g09/l301.exe)
 Standard basis: 6-31G (6D, 7F)
 Ernie: Thresh=  0.10000D-02 Tol=  0.10000D-05 Strict=F.
 There are   116 symmetry adapted cartesian basis functions of A   symmetry.
 There are   116 symmetry adapted basis functions of A   symmetry.
   116 basis functions,   272 primitive gaussians,   116 cartesian basis functions
    40 alpha electrons       40 beta electrons
       nuclear repulsion energy       588.9574879592 Hartrees.
 IExCor= 4336 DFT=T Ex+Corr=M062X ExCW=0 ScaHFX=  0.540000
 ScaDFX=  1.000000  1.000000  1.000000  1.000000 ScalE2=  1.000000  1.000000
 IRadAn=      0 IRanWt=     -1 IRanGd=            0 ICorTp=0 IEmpDi=  4
 NAtoms=   23 NActive=   23 NUniq=   23 SFac= 1.00D+00 NAtFMM=   60 NAOKFM=F Big=F
 Integral buffers will be    131072 words long.
 Raffenetti 2 integral format.
 Two-electron integral symmetry is turned on.
 Leave Link  301 at Thu Mar 12 19:01:42 2020, MaxMem=    33554432 cpu:         0.0
 (Enter /usr/local/gaussian09d01/g09/l302.exe)
 NPDir=0 NMtPBC=     1 NCelOv=     1 NCel=       1 NClECP=     1 NCelD=      1
         NCelK=      1 NCelE2=     1 NClLst=     1 CellRange=     0.0.
 One-electron integrals computed using PRISM.
 NBasis=   116 RedAO= T EigKep=  3.52D-03  NBF=   116
 NBsUse=   116 1.00D-06 EigRej= -1.00D+00 NBFU=   116
 Precomputing XC quadrature grid using
 IXCGrd= 4 IRadAn=           0 IRanWt=          -1 IRanGd=           0 AccXCQ= 0.00D+00.
 Generated NRdTot=       0 NPtTot=           0 NUsed=           0 NTot=          32
 NSgBfM=   115   115   115   115   115 MxSgAt=    23 MxSgA2=    23.
 Leave Link  302 at Thu Mar 12 19:01:43 2020, MaxMem=    33554432 cpu:         0.3
 (Enter /usr/local/gaussian09d01/g09/l303.exe)
 DipDrv:  MaxL=1.
 Leave Link  303 at Thu Mar 12 19:01:43 2020, MaxMem=    33554432 cpu:         0.0
 (Enter /usr/local/gaussian09d01/g09/l401.exe)
 ExpMin= 1.61D-01 ExpMax= 5.48D+03 ExpMxC= 8.25D+02 IAcc=1 IRadAn=         1 AccDes= 0.00D+00
 Harris functional with IExCor= 1009 and IRadAn=       1 diagonalized for initial guess.
 HarFok:  IExCor= 1009 AccDes= 0.00D+00 IRadAn=         1 IDoV= 1 UseB2=F ITyADJ=14
 ICtDFT=  3500011 ScaDFX=  1.000000  1.000000  1.000000  1.000000
 FoFCou: FMM=F IPFlag=           0 FMFlag=      100000 FMFlg1=           0
         NFxFlg=           0 DoJE=T BraDBF=F KetDBF=T FulRan=T
         wScrn=  0.000000 ICntrl=     500 IOpCl=  0 I1Cent=   200000004 NGrid=           0
         NMat0=    1 NMatS0=      1 NMatT0=    0 NMatD0=    1 NMtDS0=    0 NMtDT0=    0
 Petite list used in FoFCou.
 Harris En= -532.610159909981    
 JPrj=0 DoOrth=F DoCkMO=F.
 Leave Link  401 at Thu Mar 12 19:01:44 2020, MaxMem=    33554432 cpu:         0.8
 (Enter /usr/local/gaussian09d01/g09/l502.exe)
 Closed shell SCF:
 Using DIIS extrapolation, IDIIS=  1040.
 Integral symmetry usage will be decided dynamically.
 Keep R1 ints in memory in canonical form, NReq=24030401.
 IVT=       60528 IEndB=       60528 NGot=    33554432 MDV=    10465614
 LenX=    10465614 LenY=    10451717
 Requested convergence on RMS density matrix=1.00D-08 within 128 cycles.
 Requested convergence on MAX density matrix=1.00D-06.
 Requested convergence on             energy=1.00D-06.
 No special actions if energy rises.
 FoFCou: FMM=F IPFlag=           0 FMFlag=           0 FMFlg1=           0
         NFxFlg=           0 DoJE=F BraDBF=F KetDBF=F FulRan=T
         wScrn=  0.000000 ICntrl=     600 IOpCl=  0 I1Cent=           0 NGrid=           0
         NMat0=    1 NMatS0=   6786 NMatT0=    0 NMatD0=    1 NMtDS0=    0 NMtDT0=    0
 Symmetry not used in FoFCou.
 Integral accuracy reduced to 1.0D-05 until final iterations.

 Cycle   1  Pass 0  IDiag  1:
 E= -532.447339314140    
 DIIS: error= 5.67D-02 at cycle   1 NSaved=   1.
 NSaved= 1 IEnMin= 1 EnMin= -532.447339314140     IErMin= 1 ErrMin= 5.67D-02
 ErrMax= 5.67D-02  0.00D+00 EMaxC= 1.00D-01 BMatC= 3.67D-01 BMatP= 3.67D-01
 IDIUse=3 WtCom= 4.33D-01 WtEn= 5.67D-01
 Coeff-Com:  0.100D+01
 Coeff-En:   0.100D+01
 Coeff:      0.100D+01
 Gap=     0.246 Goal=   None    Shift=    0.000
 GapD=    0.246 DampG=1.000 DampE=0.500 DampFc=0.5000 IDamp=-1.
 Damping current iteration by 5.00D-01
 RMSDP=8.87D-03 MaxDP=1.87D-01              OVMax= 1.97D-01

 Cycle   2  Pass 0  IDiag  1:
 E= -532.594104948942     Delta-E=       -0.146765634802 Rises=F Damp=T
 DIIS: error= 1.02D-02 at cycle   2 NSaved=   2.
 NSaved= 2 IEnMin= 2 EnMin= -532.594104948942     IErMin= 2 ErrMin= 1.02D-02
 ErrMax= 1.02D-02  0.00D+00 EMaxC= 1.00D-01 BMatC= 1.98D-02 BMatP= 3.67D-01
 IDIUse=3 WtCom= 8.98D-01 WtEn= 1.02D-01
 Coeff-Com:  0.335D-01 0.967D+00
 Coeff-En:   0.459D-01 0.954D+00
 Coeff:      0.347D-01 0.965D+00
 Gap=     0.352 Goal=   None    Shift=    0.000
 RMSDP=2.17D-03 MaxDP=3.43D-02 DE=-1.47D-01 OVMax= 1.10D-01

 Cycle   3  Pass 0  IDiag  1:
 E= -532.749875715269     Delta-E=       -0.155770766327 Rises=F Damp=F
 DIIS: error= 1.09D-02 at cycle   3 NSaved=   3.
 NSaved= 3 IEnMin= 3 EnMin= -532.749875715269     IErMin= 2 ErrMin= 1.02D-02
 ErrMax= 1.09D-02  0.00D+00 EMaxC= 1.00D-01 BMatC= 1.45D-02 BMatP= 1.98D-02
 IDIUse=3 WtCom= 8.91D-01 WtEn= 1.09D-01
 Coeff-Com: -0.196D-01 0.459D+00 0.561D+00
 Coeff-En:   0.000D+00 0.000D+00 0.100D+01
 Coeff:     -0.174D-01 0.409D+00 0.608D+00
 Gap=     0.327 Goal=   None    Shift=    0.000
 RMSDP=1.35D-03 MaxDP=3.51D-02 DE=-1.56D-01 OVMax= 5.44D-02

 Cycle   4  Pass 0  IDiag  1:
 E= -532.759352593845     Delta-E=       -0.009476878576 Rises=F Damp=F
 DIIS: error= 7.19D-03 at cycle   4 NSaved=   4.
 NSaved= 4 IEnMin= 4 EnMin= -532.759352593845     IErMin= 4 ErrMin= 7.19D-03
 ErrMax= 7.19D-03  0.00D+00 EMaxC= 1.00D-01 BMatC= 3.56D-03 BMatP= 1.45D-02
 IDIUse=3 WtCom= 9.28D-01 WtEn= 7.19D-02
 Coeff-Com: -0.695D-02 0.482D-01 0.339D+00 0.620D+00
 Coeff-En:   0.000D+00 0.000D+00 0.185D+00 0.815D+00
 Coeff:     -0.645D-02 0.448D-01 0.328D+00 0.634D+00
 Gap=     0.325 Goal=   None    Shift=    0.000
 RMSDP=5.43D-04 MaxDP=1.19D-02 DE=-9.48D-03 OVMax= 1.92D-02

 Cycle   5  Pass 0  IDiag  1:
 E= -532.761848823889     Delta-E=       -0.002496230045 Rises=F Damp=F
 DIIS: error= 1.37D-03 at cycle   5 NSaved=   5.
 NSaved= 5 IEnMin= 5 EnMin= -532.761848823889     IErMin= 5 ErrMin= 1.37D-03
 ErrMax= 1.37D-03  0.00D+00 EMaxC= 1.00D-01 BMatC= 2.27D-04 BMatP= 3.56D-03
 IDIUse=3 WtCom= 9.86D-01 WtEn= 1.37D-02
 Coeff-Com: -0.968D-03-0.615D-02 0.137D+00 0.335D+00 0.535D+00
 Coeff-En:   0.000D+00 0.000D+00 0.000D+00 0.000D+00 0.100D+01
 Coeff:     -0.954D-03-0.607D-02 0.135D+00 0.330D+00 0.542D+00
 Gap=     0.324 Goal=   None    Shift=    0.000
 RMSDP=1.26D-04 MaxDP=2.28D-03 DE=-2.50D-03 OVMax= 4.60D-03

 Cycle   6  Pass 0  IDiag  1:
 E= -532.762049490443     Delta-E=       -0.000200666553 Rises=F Damp=F
 DIIS: error= 2.92D-04 at cycle   6 NSaved=   6.
 NSaved= 6 IEnMin= 6 EnMin= -532.762049490443     IErMin= 6 ErrMin= 2.92D-04
 ErrMax= 2.92D-04  0.00D+00 EMaxC= 1.00D-01 BMatC= 5.63D-06 BMatP= 2.27D-04
 IDIUse=3 WtCom= 9.97D-01 WtEn= 2.92D-03
 Coeff-Com:  0.578D-03-0.469D-02 0.262D-01 0.588D-01 0.166D+00 0.754D+00
 Coeff-En:   0.000D+00 0.000D+00 0.000D+00 0.000D+00 0.000D+00 0.100D+01
 Coeff:      0.577D-03-0.467D-02 0.261D-01 0.586D-01 0.165D+00 0.754D+00
 Gap=     0.324 Goal=   None    Shift=    0.000
 RMSDP=2.74D-05 MaxDP=4.83D-04 DE=-2.01D-04 OVMax= 6.76D-04

 Cycle   7  Pass 0  IDiag  1:
 E= -532.762054465924     Delta-E=       -0.000004975481 Rises=F Damp=F
 DIIS: error= 9.86D-05 at cycle   7 NSaved=   7.
 NSaved= 7 IEnMin= 7 EnMin= -532.762054465924     IErMin= 7 ErrMin= 9.86D-05
 ErrMax= 9.86D-05  0.00D+00 EMaxC= 1.00D-01 BMatC= 8.13D-07 BMatP= 5.63D-06
 IDIUse=1 WtCom= 1.00D+00 WtEn= 0.00D+00
 Coeff-Com:  0.485D-03-0.108D-02-0.846D-02-0.282D-01-0.111D-01 0.268D+00
 Coeff-Com:  0.780D+00
 Coeff:      0.485D-03-0.108D-02-0.846D-02-0.282D-01-0.111D-01 0.268D+00
 Coeff:      0.780D+00
 Gap=     0.324 Goal=   None    Shift=    0.000
 RMSDP=1.42D-05 MaxDP=2.01D-04 DE=-4.98D-06 OVMax= 3.11D-04

 Cycle   8  Pass 0  IDiag  1:
 E= -532.762055299409     Delta-E=       -0.000000833485 Rises=F Damp=F
 DIIS: error= 3.20D-05 at cycle   8 NSaved=   8.
 NSaved= 8 IEnMin= 8 EnMin= -532.762055299409     IErMin= 8 ErrMin= 3.20D-05
 ErrMax= 3.20D-05  0.00D+00 EMaxC= 1.00D-01 BMatC= 1.10D-07 BMatP= 8.13D-07
 IDIUse=1 WtCom= 1.00D+00 WtEn= 0.00D+00
 Coeff-Com:  0.167D-03-0.196D-04-0.596D-02-0.184D-01-0.223D-01 0.176D-01
 Coeff-Com:  0.326D+00 0.703D+00
 Coeff:      0.167D-03-0.196D-04-0.596D-02-0.184D-01-0.223D-01 0.176D-01
 Coeff:      0.326D+00 0.703D+00
 Gap=     0.324 Goal=   None    Shift=    0.000
 RMSDP=4.81D-06 MaxDP=8.72D-05 DE=-8.33D-07 OVMax= 1.27D-04

 Initial convergence to 1.0D-05 achieved.  Increase integral accuracy.
 Cycle   9  Pass 1  IDiag  1:
 E= -532.762233672402     Delta-E=       -0.000178372993 Rises=F Damp=F
 DIIS: error= 1.36D-04 at cycle   1 NSaved=   1.
 NSaved= 1 IEnMin= 1 EnMin= -532.762233672402     IErMin= 1 ErrMin= 1.36D-04
 ErrMax= 1.36D-04  0.00D+00 EMaxC= 1.00D-01 BMatC= 1.91D-06 BMatP= 1.91D-06
 IDIUse=3 WtCom= 9.99D-01 WtEn= 1.36D-03
 Coeff-Com:  0.100D+01
 Coeff-En:   0.100D+01
 Coeff:      0.100D+01
 Gap=     0.324 Goal=   None    Shift=    0.000
 RMSDP=4.81D-06 MaxDP=8.72D-05 DE=-1.78D-04 OVMax= 2.08D-04

 Cycle  10  Pass 1  IDiag  1:
 E= -532.762235518134     Delta-E=       -0.000001845731 Rises=F Damp=F
 DIIS: error= 7.65D-05 at cycle   2 NSaved=   2.
 NSaved= 2 IEnMin= 2 EnMin= -532.762235518134     IErMin= 2 ErrMin= 7.65D-05
 ErrMax= 7.65D-05  0.00D+00 EMaxC= 1.00D-01 BMatC= 3.23D-07 BMatP= 1.91D-06
 IDIUse=1 WtCom= 1.00D+00 WtEn= 0.00D+00
 Coeff-Com:  0.196D+00 0.804D+00
 Coeff:      0.196D+00 0.804D+00
 Gap=     0.324 Goal=   None    Shift=    0.000
 RMSDP=7.33D-06 MaxDP=1.41D-04 DE=-1.85D-06 OVMax= 1.55D-04

 Cycle  11  Pass 1  IDiag  1:
 E= -532.762235742140     Delta-E=       -0.000000224007 Rises=F Damp=F
 DIIS: error= 3.55D-05 at cycle   3 NSaved=   3.
 NSaved= 3 IEnMin= 3 EnMin= -532.762235742140     IErMin= 3 ErrMin= 3.55D-05
 ErrMax= 3.55D-05  0.00D+00 EMaxC= 1.00D-01 BMatC= 1.30D-07 BMatP= 3.23D-07
 IDIUse=1 WtCom= 1.00D+00 WtEn= 0.00D+00
 Coeff-Com: -0.415D-01 0.375D+00 0.666D+00
 Coeff:     -0.415D-01 0.375D+00 0.666D+00
 Gap=     0.324 Goal=   None    Shift=    0.000
 RMSDP=3.42D-06 MaxDP=7.57D-05 DE=-2.24D-07 OVMax= 5.59D-05

 Cycle  12  Pass 1  IDiag  1:
 E= -532.762235853674     Delta-E=       -0.000000111533 Rises=F Damp=F
 DIIS: error= 7.26D-06 at cycle   4 NSaved=   4.
 NSaved= 4 IEnMin= 4 EnMin= -532.762235853674     IErMin= 4 ErrMin= 7.26D-06
 ErrMax= 7.26D-06  0.00D+00 EMaxC= 1.00D-01 BMatC= 7.62D-09 BMatP= 1.30D-07
 IDIUse=1 WtCom= 1.00D+00 WtEn= 0.00D+00
 Coeff-Com: -0.295D-01 0.156D+00 0.327D+00 0.547D+00
 Coeff:     -0.295D-01 0.156D+00 0.327D+00 0.547D+00
 Gap=     0.324 Goal=   None    Shift=    0.000
 RMSDP=7.00D-07 MaxDP=1.59D-05 DE=-1.12D-07 OVMax= 1.91D-05

 Cycle  13  Pass 1  IDiag  1:
 E= -532.762235859729     Delta-E=       -0.000000006055 Rises=F Damp=F
 DIIS: error= 1.81D-06 at cycle   5 NSaved=   5.
 NSaved= 5 IEnMin= 5 EnMin= -532.762235859729     IErMin= 5 ErrMin= 1.81D-06
 ErrMax= 1.81D-06  0.00D+00 EMaxC= 1.00D-01 BMatC= 3.39D-10 BMatP= 7.62D-09
 IDIUse=1 WtCom= 1.00D+00 WtEn= 0.00D+00
 Coeff-Com: -0.315D-02-0.126D-02 0.890D-02 0.155D+00 0.841D+00
 Coeff:     -0.315D-02-0.126D-02 0.890D-02 0.155D+00 0.841D+00
 Gap=     0.324 Goal=   None    Shift=    0.000
 RMSDP=3.04D-07 MaxDP=5.32D-06 DE=-6.06D-09 OVMax= 6.49D-06

 Cycle  14  Pass 1  IDiag  1:
 E= -532.762235859990     Delta-E=       -0.000000000261 Rises=F Damp=F
 DIIS: error= 1.39D-06 at cycle   6 NSaved=   6.
 NSaved= 6 IEnMin= 6 EnMin= -532.762235859990     IErMin= 6 ErrMin= 1.39D-06
 ErrMax= 1.39D-06  0.00D+00 EMaxC= 1.00D-01 BMatC= 1.60D-10 BMatP= 3.39D-10
 IDIUse=1 WtCom= 1.00D+00 WtEn= 0.00D+00
 Coeff-Com:  0.177D-02-0.191D-01-0.337D-01 0.313D-01 0.498D+00 0.521D+00
 Coeff:      0.177D-02-0.191D-01-0.337D-01 0.313D-01 0.498D+00 0.521D+00
 Gap=     0.324 Goal=   None    Shift=    0.000
 RMSDP=1.04D-07 MaxDP=2.90D-06 DE=-2.61D-10 OVMax= 5.11D-06

 Cycle  15  Pass 1  IDiag  1:
 E= -532.762235860120     Delta-E=       -0.000000000130 Rises=F Damp=F
 DIIS: error= 3.40D-07 at cycle   7 NSaved=   7.
 NSaved= 7 IEnMin= 7 EnMin= -532.762235860120     IErMin= 7 ErrMin= 3.40D-07
 ErrMax= 3.40D-07  0.00D+00 EMaxC= 1.00D-01 BMatC= 6.36D-12 BMatP= 1.60D-10
 IDIUse=1 WtCom= 1.00D+00 WtEn= 0.00D+00
 Coeff-Com:  0.697D-03-0.494D-02-0.997D-02-0.386D-02 0.446D-01 0.178D+00
 Coeff-Com:  0.796D+00
 Coeff:      0.697D-03-0.494D-02-0.997D-02-0.386D-02 0.446D-01 0.178D+00
 Coeff:      0.796D+00
 Gap=     0.324 Goal=   None    Shift=    0.000
 RMSDP=3.95D-08 MaxDP=6.69D-07 DE=-1.30D-10 OVMax= 9.37D-07

 Cycle  16  Pass 1  IDiag  1:
 E= -532.762235860126     Delta-E=       -0.000000000006 Rises=F Damp=F
 DIIS: error= 1.18D-07 at cycle   8 NSaved=   8.
 NSaved= 8 IEnMin= 8 EnMin= -532.762235860126     IErMin= 8 ErrMin= 1.18D-07
 ErrMax= 1.18D-07  0.00D+00 EMaxC= 1.00D-01 BMatC= 1.12D-12 BMatP= 6.36D-12
 IDIUse=1 WtCom= 1.00D+00 WtEn= 0.00D+00
 Coeff-Com:  0.129D-03 0.112D-03-0.519D-03-0.590D-02-0.493D-01 0.221D-01
 Coeff-Com:  0.375D+00 0.658D+00
 Coeff:      0.129D-03 0.112D-03-0.519D-03-0.590D-02-0.493D-01 0.221D-01
 Coeff:      0.375D+00 0.658D+00
 Gap=     0.324 Goal=   None    Shift=    0.000
 RMSDP=1.31D-08 MaxDP=2.39D-07 DE=-5.91D-12 OVMax= 3.41D-07

 Cycle  17  Pass 1  IDiag  1:
 E= -532.762235860124     Delta-E=        0.000000000003 Rises=F Damp=F
 DIIS: error= 2.48D-08 at cycle   9 NSaved=   9.
 NSaved= 9 IEnMin= 8 EnMin= -532.762235860126     IErMin= 9 ErrMin= 2.48D-08
 ErrMax= 2.48D-08  0.00D+00 EMaxC= 1.00D-01 BMatC= 8.05D-14 BMatP= 1.12D-12
 IDIUse=1 WtCom= 1.00D+00 WtEn= 0.00D+00
 Coeff-Com: -0.348D-04 0.583D-03 0.934D-03-0.145D-02-0.225D-01-0.938D-02
 Coeff-Com:  0.399D-01 0.223D+00 0.769D+00
 Coeff:     -0.348D-04 0.583D-03 0.934D-03-0.145D-02-0.225D-01-0.938D-02
 Coeff:      0.399D-01 0.223D+00 0.769D+00
 Gap=     0.324 Goal=   None    Shift=    0.000
 RMSDP=4.49D-09 MaxDP=7.48D-08 DE= 2.50D-12 OVMax= 1.69D-07

 SCF Done:  E(RM062X) =  -532.762235860     A.U. after   17 cycles
            NFock= 17  Conv=0.45D-08     -V/T= 2.0037
 KE= 5.308164604489D+02 PE=-2.409839836807D+03 EE= 7.573036525387D+02
 Leave Link  502 at Thu Mar 12 19:02:39 2020, MaxMem=    33554432 cpu:        54.9
 (Enter /usr/local/gaussian09d01/g09/l601.exe)
 Copying SCF densities to generalized density rwf, IOpCl= 0 IROHF=0.

 **********************************************************************

            Population analysis using the SCF density.

 **********************************************************************

 Orbital symmetries:
       Occupied  (A) (A) (A) (A) (A) (A) (A) (A) (A) (A) (A) (A)
                 (A) (A) (A) (A) (A) (A) (A) (A) (A) (A) (A) (A)
                 (A) (A) (A) (A) (A) (A) (A) (A) (A) (A) (A) (A)
                 (A) (A) (A) (A)
       Virtual   (A) (A) (A) (A) (A) (A) (A) (A) (A) (A) (A) (A)
                 (A) (A) (A) (A) (A) (A) (A) (A) (A) (A) (A) (A)
                 (A) (A) (A) (A) (A) (A) (A) (A) (A) (A) (A) (A)
                 (A) (A) (A) (A) (A) (A) (A) (A) (A) (A) (A) (A)
                 (A) (A) (A) (A) (A) (A) (A) (A) (A) (A) (A) (A)
                 (A) (A) (A) (A) (A) (A) (A) (A) (A) (A) (A) (A)
                 (A) (A) (A) (A)
 The electronic state is 1-A.
 Alpha  occ. eigenvalues --  -19.89331 -19.84287 -19.80834 -14.97180 -14.93116
 Alpha  occ. eigenvalues --  -10.90589 -10.86465 -10.78260 -10.75860 -10.63148
 Alpha  occ. eigenvalues --   -1.43985  -1.40527  -1.31535  -1.30059  -1.19025
 Alpha  occ. eigenvalues --   -1.08031  -0.99124  -0.94749  -0.90997  -0.90023
 Alpha  occ. eigenvalues --   -0.85839  -0.79985  -0.78178  -0.74895  -0.73990
 Alpha  occ. eigenvalues --   -0.73689  -0.72960  -0.69566  -0.66723  -0.65138
 Alpha  occ. eigenvalues --   -0.64178  -0.62429  -0.60968  -0.57568  -0.57151
 Alpha  occ. eigenvalues --   -0.56949  -0.56022  -0.54463  -0.51890  -0.49630
 Alpha virt. eigenvalues --   -0.17230  -0.12529  -0.07297  -0.03043  -0.00890
 Alpha virt. eigenvalues --    0.00337   0.01316   0.04083   0.04504   0.04796
 Alpha virt. eigenvalues --    0.06202   0.07563   0.09120   0.10333   0.10976
 Alpha virt. eigenvalues --    0.11190   0.12014   0.12656   0.15914   0.18381
 Alpha virt. eigenvalues --    0.20123   0.23185   0.27422   0.38503   0.40195
 Alpha virt. eigenvalues --    0.42981   0.45561   0.46980   0.48042   0.48263
 Alpha virt. eigenvalues --    0.49335   0.51510   0.51940   0.54491   0.57953
 Alpha virt. eigenvalues --    0.58178   0.60077   0.63168   0.63979   0.67487
 Alpha virt. eigenvalues --    0.68042   0.70694   0.74227   0.75062   0.76644
 Alpha virt. eigenvalues --    0.78390   0.80406   0.83099   0.84027   0.85307
 Alpha virt. eigenvalues --    0.87189   0.87651   0.87927   0.90011   0.91926
 Alpha virt. eigenvalues --    0.92034   0.94428   0.94949   0.96346   1.01450
 Alpha virt. eigenvalues --    1.03732   1.06788   1.09549   1.11300   1.11845
 Alpha virt. eigenvalues --    1.16695   1.19126   1.28069   1.30482   1.36945
 Alpha virt. eigenvalues --    1.47574   1.54177   1.64092   1.76088   1.79508
 Alpha virt. eigenvalues --    1.88033
          Condensed to atoms (all electrons):
               1          2          3          4          5          6
     1  C    5.189481   0.375563   0.371635   0.000000   0.370084   0.370785
     2  H    0.375563   0.468091  -0.017892   0.000000  -0.019753  -0.020160
     3  H    0.371635  -0.017892   0.521599   0.000000  -0.029633  -0.030183
     4  H    0.000000   0.000000   0.000000   0.285030   0.000000   0.000000
     5  H    0.370084  -0.019753  -0.029633   0.000000   0.538328  -0.032269
     6  H    0.370785  -0.020160  -0.030183   0.000000  -0.032269   0.544971
     7  C    0.000000   0.000000  -0.000001  -0.006087   0.000000   0.000000
     8  C   -0.000004   0.000001   0.000082   0.000125  -0.000011  -0.000007
     9  C    0.000288   0.000037   0.001472   0.000060  -0.000155  -0.000132
    10  N    0.000000   0.000000  -0.000001   0.000022   0.000000   0.000000
    11  O   -0.001295   0.000015   0.003230   0.000344   0.000043   0.000016
    12  O   -0.005290   0.000175  -0.001611   0.000000  -0.000769  -0.000636
    13  C    0.000000   0.000000   0.000000  -0.015393   0.000000   0.000000
    14  H    0.000000   0.000000   0.000000   0.000028   0.000000   0.000000
    15  H    0.000000   0.000000   0.000000   0.003806   0.000000   0.000000
    16  H    0.000001   0.000000  -0.000002   0.000002   0.000000   0.000000
    17  H    0.000000   0.000000   0.000000  -0.000009   0.000000   0.000000
    18  H   -0.000001   0.000000   0.000000   0.000000   0.000000   0.000000
    19  H    0.027197  -0.000951   0.002072   0.000000   0.005236   0.004749
    20  N    0.000000   0.000000   0.000000   0.005641   0.000000   0.000000
    21  O    0.000000   0.000000   0.000000   0.257294   0.000000   0.000000
    22  H    0.000000   0.000000   0.000000  -0.000001   0.000000   0.000000
    23  H    0.000000   0.000000   0.000000  -0.000123   0.000000   0.000000
               7          8          9         10         11         12
     1  C    0.000000  -0.000004   0.000288   0.000000  -0.001295  -0.005290
     2  H    0.000000   0.000001   0.000037   0.000000   0.000015   0.000175
     3  H   -0.000001   0.000082   0.001472  -0.000001   0.003230  -0.001611
     4  H   -0.006087   0.000125   0.000060   0.000022   0.000344   0.000000
     5  H    0.000000  -0.000011  -0.000155   0.000000   0.000043  -0.000769
     6  H    0.000000  -0.000007  -0.000132   0.000000   0.000016  -0.000636
     7  C    5.455487   0.216328  -0.048013  -0.073347   0.007720   0.005362
     8  C    0.216328   5.571489   0.150825   0.193116  -0.124367  -0.148097
     9  C   -0.048013   0.150825   4.754513  -0.049354   0.493834   0.197090
    10  N   -0.073347   0.193116  -0.049354   7.096714   0.002206   0.001762
    11  O    0.007720  -0.124367   0.493834   0.002206   8.125222  -0.108448
    12  O    0.005362  -0.148097   0.197090   0.001762  -0.108448   8.414703
    13  C    0.252336  -0.016832  -0.007568  -0.008727   0.011956  -0.000501
    14  H    0.375585  -0.027483   0.005563  -0.001439   0.000421  -0.000025
    15  H    0.365171  -0.027366  -0.001895   0.003745   0.004648   0.000130
    16  H   -0.043154   0.385700  -0.026812  -0.035535   0.001072   0.000896
    17  H   -0.013145  -0.010672  -0.000622   0.096113   0.000180  -0.000077
    18  H    0.004816  -0.034145  -0.007421   0.320763   0.000224   0.013147
    19  H   -0.000158   0.005364  -0.018861  -0.000117  -0.000715   0.236998
    20  N   -0.098863   0.004315   0.000008  -0.074625  -0.003434   0.000057
    21  O   -0.067605   0.002768  -0.000500  -0.000166  -0.001701  -0.000001
    22  H   -0.000922  -0.029199   0.004122   0.322221  -0.000080  -0.000001
    23  H    0.007748  -0.000490  -0.000096   0.001775   0.000087   0.000009
              13         14         15         16         17         18
     1  C    0.000000   0.000000   0.000000   0.000001   0.000000  -0.000001
     2  H    0.000000   0.000000   0.000000   0.000000   0.000000   0.000000
     3  H    0.000000   0.000000   0.000000  -0.000002   0.000000   0.000000
     4  H   -0.015393   0.000028   0.003806   0.000002  -0.000009   0.000000
     5  H    0.000000   0.000000   0.000000   0.000000   0.000000   0.000000
     6  H    0.000000   0.000000   0.000000   0.000000   0.000000   0.000000
     7  C    0.252336   0.375585   0.365171  -0.043154  -0.013145   0.004816
     8  C   -0.016832  -0.027483  -0.027366   0.385700  -0.010672  -0.034145
     9  C   -0.007568   0.005563  -0.001895  -0.026812  -0.000622  -0.007421
    10  N   -0.008727  -0.001439   0.003745  -0.035535   0.096113   0.320763
    11  O    0.011956   0.000421   0.004648   0.001072   0.000180   0.000224
    12  O   -0.000501  -0.000025   0.000130   0.000896  -0.000077   0.013147
    13  C    4.616667  -0.034757  -0.029978   0.003995  -0.014094   0.000237
    14  H   -0.034757   0.438387  -0.015598  -0.003277  -0.000223  -0.000052
    15  H   -0.029978  -0.015598   0.463324  -0.000702   0.000447  -0.000100
    16  H    0.003995  -0.003277  -0.000702   0.458062   0.000978   0.000990
    17  H   -0.014094  -0.000223   0.000447   0.000978   0.249170  -0.000438
    18  H    0.000237  -0.000052  -0.000100   0.000990  -0.000438   0.336147
    19  H   -0.000010   0.000002  -0.000002  -0.000245  -0.000020  -0.000255
    20  N    0.372688  -0.001768   0.004456  -0.000304   0.227949   0.000274
    21  O    0.325979   0.001004  -0.002650  -0.000070   0.001232   0.000002
    22  H   -0.000182   0.001605  -0.000069  -0.003801  -0.001526  -0.020634
    23  H   -0.018962  -0.000230  -0.000099   0.000016  -0.008732  -0.000029
              19         20         21         22         23
     1  C    0.027197   0.000000   0.000000   0.000000   0.000000
     2  H   -0.000951   0.000000   0.000000   0.000000   0.000000
     3  H    0.002072   0.000000   0.000000   0.000000   0.000000
     4  H    0.000000   0.005641   0.257294  -0.000001  -0.000123
     5  H    0.005236   0.000000   0.000000   0.000000   0.000000
     6  H    0.004749   0.000000   0.000000   0.000000   0.000000
     7  C   -0.000158  -0.098863  -0.067605  -0.000922   0.007748
     8  C    0.005364   0.004315   0.002768  -0.029199  -0.000490
     9  C   -0.018861   0.000008  -0.000500   0.004122  -0.000096
    10  N   -0.000117  -0.074625  -0.000166   0.322221   0.001775
    11  O   -0.000715  -0.003434  -0.001701  -0.000080   0.000087
    12  O    0.236998   0.000057  -0.000001  -0.000001   0.000009
    13  C   -0.000010   0.372688   0.325979  -0.000182  -0.018962
    14  H    0.000002  -0.001768   0.001004   0.001605  -0.000230
    15  H   -0.000002   0.004456  -0.002650  -0.000069  -0.000099
    16  H   -0.000245  -0.000304  -0.000070  -0.003801   0.000016
    17  H   -0.000020   0.227949   0.001232  -0.001526  -0.008732
    18  H   -0.000255   0.000274   0.000002  -0.020634  -0.000029
    19  H    0.274098   0.000011   0.000000   0.000016  -0.000001
    20  N    0.000011   6.770912  -0.110310   0.000902   0.382496
    21  O    0.000000  -0.110310   8.137788   0.000002  -0.004551
    22  H    0.000016   0.000902   0.000002   0.369051  -0.000033
    23  H   -0.000001   0.382496  -0.004551  -0.000033   0.415128
 Mulliken charges:
               1
     1  C   -0.698445
     2  H    0.214874
     3  H    0.179233
     4  H    0.469261
     5  H    0.168898
     6  H    0.162864
     7  C   -0.339258
     8  C   -0.111442
     9  C    0.553615
    10  N   -0.795125
    11  O   -0.411180
    12  O   -0.604870
    13  C    0.563145
    14  H    0.262255
    15  H    0.232734
    16  H    0.262189
    17  H    0.473488
    18  H    0.386476
    19  H    0.465592
    20  N   -0.480404
    21  O   -0.538515
    22  H    0.358529
    23  H    0.226088
 Sum of Mulliken charges =   1.00000
 Mulliken charges with hydrogens summed into heavy atoms:
               1
     1  C    0.027424
     7  C    0.155730
     8  C    0.150746
     9  C    0.553615
    10  N   -0.050121
    11  O   -0.411180
    12  O   -0.139278
    13  C    0.563145
    20  N    0.219172
    21  O   -0.069254
 Electronic spatial extent (au):  <R**2>=           1990.2174
 Charge=              1.0000 electrons
 Dipole moment (field-independent basis, Debye):
    X=              4.6096    Y=              2.1102    Z=             -0.6819  Tot=              5.1153
 Quadrupole moment (field-independent basis, Debye-Ang):
   XX=            -33.2854   YY=            -48.0315   ZZ=            -49.3302
   XY=             -0.6056   XZ=             -4.6828   YZ=              2.0185
 Traceless Quadrupole moment (field-independent basis, Debye-Ang):
   XX=             10.2636   YY=             -4.4825   ZZ=             -5.7812
   XY=             -0.6056   XZ=             -4.6828   YZ=              2.0185
 Octapole moment (field-independent basis, Debye-Ang**2):
  XXX=            -19.9091  YYY=             15.4478  ZZZ=              8.0707  XYY=             24.0332
  XXY=            -16.6620  XXZ=             -3.0914  XZZ=             19.8785  YZZ=             -3.2380
  YYZ=             -6.6374  XYZ=              8.7422
 Hexadecapole moment (field-independent basis, Debye-Ang**3):
 XXXX=          -1421.9548 YYYY=           -424.8675 ZZZZ=           -203.5918 XXXY=             26.4982
 XXXZ=            -35.4679 YYYX=            -16.9690 YYYZ=             39.9219 ZZZX=             18.9827
 ZZZY=              0.7645 XXYY=           -329.0774 XXZZ=           -296.0751 YYZZ=           -110.8136
 XXYZ=             14.8454 YYXZ=            -27.9322 ZZXY=            -23.9805
 N-N= 5.889574879592D+02 E-N=-2.409839838393D+03  KE= 5.308164604489D+02
 No NMR shielding tensors so no spin-rotation constants.
 Leave Link  601 at Thu Mar 12 19:02:39 2020, MaxMem=    33554432 cpu:         0.1
 (Enter /usr/local/gaussian09d01/g09/l9999.exe)
 1\1\GINC-KARURA\SP\RM062X\6-31G\C5H13N2O3(1+)\RTAKE\12-Mar-2020\0\\#p 
 M062X/6-31G\\chk calc\\1,1\C,0,3.824482709,-1.14219544,1.17225369\H,0,
 4.799113079,-1.62961423,1.173808707\H,0,3.053614027,-1.916312598,1.160
 804944\H,0,-2.540416453,-2.844981592,-1.014302773\H,0,3.75960642,-0.53
 291794,2.07824618\H,0,3.765323683,-0.52154146,0.273951194\C,0,-2.40154
 2122,-0.705499021,0.492562549\C,0,-1.33365594,0.193207044,1.141270536\
 C,0,0.021967089,-0.47033751,0.950186539\N,0,-1.303304814,1.529148773,0
 .515945207\O,0,0.155929117,-1.611462803,0.51692019\O,0,1.024922388,0.3
 53392554,1.298656\C,0,-2.121889445,-0.918337302,-0.967112723\H,0,-3.39
 229932,-0.247402335,0.596496855\H,0,-2.419176945,-1.669900059,1.004436
 439\H,0,-1.526304416,0.239474424,2.221387894\H,0,-1.503902114,0.960750
 702,-1.170400229\H,0,-0.410560182,1.997532273,0.666150752\H,0,1.924402
 159,-0.039925506,1.230818645\N,0,-1.700457396,0.069239192,-1.694919761
 \O,0,-2.336854815,-2.071648312,-1.575178364\H,0,-2.071900591,2.1285565
 43,0.807834339\H,0,-1.570223333,-0.017385776,-2.388140045\\Version=ES6
 4L-G09RevD.01\State=1-A\HF=-532.7622359\RMSD=4.485e-09\Dipole=-1.91938
 21,0.5986045,-0.0888191\Quadrupole=7.761036,-2.29918,-5.461856,2.03959
 23,2.5366376,0.4583859\PG=C01 [X(C5H13N2O3)]\\@


 YOU WILL NEVER "FIND" TIME FOR ANYTHING.
 IF YOU WANT TIME, YOU MUST MAKE IT.

                        -- CHARLES BIXTON
 Job cpu time:       0 days  0 hours  0 minutes 56.2 seconds.
 File lengths (MBytes):  RWF=      7 Int=      0 D2E=      0 Chk=      2 Scr=      1
 Normal termination of Gaussian 09 at Thu Mar 12 19:02:39 2020.
