 Entering Gaussian System, Link 0=g09
 Input=./n20_h23_09.gjf
 Output=./n20_h23_09.log
 Initial command:
 /usr/local/gaussian09d01/g09/l1.exe "/scr/Gau-20054.inp" -scrdir="/scr/"
 Entering Link 1 = /usr/local/gaussian09d01/g09/l1.exe PID=     20055.
  
 Copyright (c) 1988,1990,1992,1993,1995,1998,2003,2009,2013,
            Gaussian, Inc.  All Rights Reserved.
  
 This is part of the Gaussian(R) 09 program.  It is based on
 the Gaussian(R) 03 system (copyright 2003, Gaussian, Inc.),
 the Gaussian(R) 98 system (copyright 1998, Gaussian, Inc.),
 the Gaussian(R) 94 system (copyright 1995, Gaussian, Inc.),
 the Gaussian 92(TM) system (copyright 1992, Gaussian, Inc.),
 the Gaussian 90(TM) system (copyright 1990, Gaussian, Inc.),
 the Gaussian 88(TM) system (copyright 1988, Gaussian, Inc.),
 the Gaussian 86(TM) system (copyright 1986, Carnegie Mellon
 University), and the Gaussian 82(TM) system (copyright 1983,
 Carnegie Mellon University). Gaussian is a federally registered
 trademark of Gaussian, Inc.
  
 This software contains proprietary and confidential information,
 including trade secrets, belonging to Gaussian, Inc.
  
 This software is provided under written license and may be
 used, copied, transmitted, or stored only in accord with that
 written license.
  
 The following legend is applicable only to US Government
 contracts under FAR:
  
                    RESTRICTED RIGHTS LEGEND
  
 Use, reproduction and disclosure by the US Government is
 subject to restrictions as set forth in subparagraphs (a)
 and (c) of the Commercial Computer Software - Restricted
 Rights clause in FAR 52.227-19.
  
 Gaussian, Inc.
 340 Quinnipiac St., Bldg. 40, Wallingford CT 06492
  
  
 ---------------------------------------------------------------
 Warning -- This program may not be used in any manner that
 competes with the business of Gaussian, Inc. or will provide
 assistance to any competitor of Gaussian, Inc.  The licensee
 of this program is prohibited from giving any competitor of
 Gaussian, Inc. access to this program.  By using this program,
 the user acknowledges that Gaussian, Inc. is engaged in the
 business of creating and licensing software in the field of
 computational chemistry and represents and warrants to the
 licensee that it is not a competitor of Gaussian, Inc. and that
 it will not use this program in any manner prohibited above.
 ---------------------------------------------------------------
  

 Cite this work as:
 Gaussian 09, Revision D.01,
 M. J. Frisch, G. W. Trucks, H. B. Schlegel, G. E. Scuseria, 
 M. A. Robb, J. R. Cheeseman, G. Scalmani, V. Barone, B. Mennucci, 
 G. A. Petersson, H. Nakatsuji, M. Caricato, X. Li, H. P. Hratchian, 
 A. F. Izmaylov, J. Bloino, G. Zheng, J. L. Sonnenberg, M. Hada, 
 M. Ehara, K. Toyota, R. Fukuda, J. Hasegawa, M. Ishida, T. Nakajima, 
 Y. Honda, O. Kitao, H. Nakai, T. Vreven, J. A. Montgomery, Jr., 
 J. E. Peralta, F. Ogliaro, M. Bearpark, J. J. Heyd, E. Brothers, 
 K. N. Kudin, V. N. Staroverov, T. Keith, R. Kobayashi, J. Normand, 
 K. Raghavachari, A. Rendell, J. C. Burant, S. S. Iyengar, J. Tomasi, 
 M. Cossi, N. Rega, J. M. Millam, M. Klene, J. E. Knox, J. B. Cross, 
 V. Bakken, C. Adamo, J. Jaramillo, R. Gomperts, R. E. Stratmann, 
 O. Yazyev, A. J. Austin, R. Cammi, C. Pomelli, J. W. Ochterski, 
 R. L. Martin, K. Morokuma, V. G. Zakrzewski, G. A. Voth, 
 P. Salvador, J. J. Dannenberg, S. Dapprich, A. D. Daniels, 
 O. Farkas, J. B. Foresman, J. V. Ortiz, J. Cioslowski, 
 and D. J. Fox, Gaussian, Inc., Wallingford CT, 2013.
 
 ******************************************
 Gaussian 09:  ES64L-G09RevD.01 24-Apr-2013
                12-Mar-2020 
 ******************************************
 --------------
 #p M062X/6-31G
 --------------
 1/38=1/1;
 2/12=2,17=6,18=5,40=1/2;
 3/5=1,6=6,11=2,16=1,25=1,30=1,74=-55/1,2,3;
 4//1;
 5/5=2,38=5/2;
 6/7=2,8=2,9=2,10=2,28=1/1;
 99/5=1,9=1/99;
 Leave Link    1 at Thu Mar 12 19:03:35 2020, MaxMem=           0 cpu:         0.0
 (Enter /usr/local/gaussian09d01/g09/l101.exe)
 --------
 chk calc
 --------
 Symbolic Z-matrix:
 Charge =  1 Multiplicity = 1
 C                     3.82448  -1.1422    1.17225 
 H                     4.79911  -1.62961   1.17381 
 H                     3.05361  -1.91631   1.1608 
 H                    -2.54042  -2.84498  -1.0143 
 H                     3.75961  -0.53292   2.07825 
 H                     3.76532  -0.52154   0.27395 
 C                    -2.40154  -0.7055    0.49256 
 C                    -1.33366   0.19321   1.14127 
 C                     0.02197  -0.47034   0.95019 
 N                    -1.3033    1.52915   0.51595 
 O                     0.15593  -1.61146   0.51692 
 O                     1.02492   0.35339   1.29866 
 C                    -2.12189  -0.91834  -0.96711 
 H                    -3.3923   -0.2474    0.5965 
 H                    -2.41918  -1.6699    1.00444 
 H                    -1.5263    0.23947   2.22139 
 H                    -1.5039    0.96075  -1.1704 
 H                    -0.41056   1.99753   0.66615 
 H                     1.9244   -0.03993   1.23082 
 N                    -1.70046   0.06924  -1.69492 
 O                    -2.33685  -2.07165  -1.57518 
 H                    -2.0719    2.12856   0.80783 
 H                    -1.53301  -0.04214  -2.5862 
 
 NAtoms=     23 NQM=       23 NQMF=       0 NMMI=      0 NMMIF=      0
                NMic=       0 NMicF=      0.
                    Isotopes and Nuclear Properties:
 (Nuclear quadrupole moments (NQMom) in fm**2, nuclear magnetic moments (NMagM)
  in nuclear magnetons)

  Atom         1           2           3           4           5           6           7           8           9          10
 IAtWgt=          12           1           1           1           1           1          12          12          12          14
 AtmWgt=  12.0000000   1.0078250   1.0078250   1.0078250   1.0078250   1.0078250  12.0000000  12.0000000  12.0000000  14.0030740
 NucSpn=           0           1           1           1           1           1           0           0           0           2
 AtZEff=   0.0000000   0.0000000   0.0000000   0.0000000   0.0000000   0.0000000   0.0000000   0.0000000   0.0000000   0.0000000
 NQMom=    0.0000000   0.0000000   0.0000000   0.0000000   0.0000000   0.0000000   0.0000000   0.0000000   0.0000000   2.0440000
 NMagM=    0.0000000   2.7928460   2.7928460   2.7928460   2.7928460   2.7928460   0.0000000   0.0000000   0.0000000   0.4037610
 AtZNuc=   6.0000000   1.0000000   1.0000000   1.0000000   1.0000000   1.0000000   6.0000000   6.0000000   6.0000000   7.0000000

  Atom        11          12          13          14          15          16          17          18          19          20
 IAtWgt=          16          16          12           1           1           1           1           1           1          14
 AtmWgt=  15.9949146  15.9949146  12.0000000   1.0078250   1.0078250   1.0078250   1.0078250   1.0078250   1.0078250  14.0030740
 NucSpn=           0           0           0           1           1           1           1           1           1           2
 AtZEff=   0.0000000   0.0000000   0.0000000   0.0000000   0.0000000   0.0000000   0.0000000   0.0000000   0.0000000   0.0000000
 NQMom=    0.0000000   0.0000000   0.0000000   0.0000000   0.0000000   0.0000000   0.0000000   0.0000000   0.0000000   2.0440000
 NMagM=    0.0000000   0.0000000   0.0000000   2.7928460   2.7928460   2.7928460   2.7928460   2.7928460   2.7928460   0.4037610
 AtZNuc=   8.0000000   8.0000000   6.0000000   1.0000000   1.0000000   1.0000000   1.0000000   1.0000000   1.0000000   7.0000000

  Atom        21          22          23
 IAtWgt=          16           1           1
 AtmWgt=  15.9949146   1.0078250   1.0078250
 NucSpn=           0           1           1
 AtZEff=   0.0000000   0.0000000   0.0000000
 NQMom=    0.0000000   0.0000000   0.0000000
 NMagM=    0.0000000   2.7928460   2.7928460
 AtZNuc=   8.0000000   1.0000000   1.0000000
 Leave Link  101 at Thu Mar 12 19:03:35 2020, MaxMem=    33554432 cpu:         0.0
 (Enter /usr/local/gaussian09d01/g09/l202.exe)
                          Input orientation:                          
 ---------------------------------------------------------------------
 Center     Atomic      Atomic             Coordinates (Angstroms)
 Number     Number       Type             X           Y           Z
 ---------------------------------------------------------------------
      1          6           0        3.824483   -1.142195    1.172254
      2          1           0        4.799113   -1.629614    1.173809
      3          1           0        3.053614   -1.916313    1.160805
      4          1           0       -2.540416   -2.844982   -1.014303
      5          1           0        3.759606   -0.532918    2.078246
      6          1           0        3.765324   -0.521541    0.273951
      7          6           0       -2.401542   -0.705499    0.492563
      8          6           0       -1.333656    0.193207    1.141271
      9          6           0        0.021967   -0.470338    0.950187
     10          7           0       -1.303305    1.529149    0.515945
     11          8           0        0.155929   -1.611463    0.516920
     12          8           0        1.024922    0.353393    1.298656
     13          6           0       -2.121889   -0.918337   -0.967113
     14          1           0       -3.392299   -0.247402    0.596497
     15          1           0       -2.419177   -1.669900    1.004436
     16          1           0       -1.526304    0.239474    2.221388
     17          1           0       -1.503902    0.960751   -1.170400
     18          1           0       -0.410560    1.997532    0.666151
     19          1           0        1.924402   -0.039926    1.230819
     20          7           0       -1.700457    0.069239   -1.694920
     21          8           0       -2.336855   -2.071648   -1.575178
     22          1           0       -2.071901    2.128557    0.807834
     23          1           0       -1.533014   -0.042136   -2.586203
 ---------------------------------------------------------------------
                    Distance matrix (angstroms):
                    1          2          3          4          5
     1  C    0.000000
     2  H    1.089717   0.000000
     3  H    1.092532   1.768935   0.000000
     4  H    6.942078   7.754589   6.073442   0.000000
     5  H    1.093732   1.761058   1.803858   7.389167   0.000000
     6  H    1.093462   1.762467   1.799563   6.842538   1.804340
     7  C    6.278222   7.291606   5.627730   2.620556   6.364270
     8  C    5.328288   6.398015   4.868120   3.915783   5.229388
     9  C    3.867794   4.920879   3.365425   4.007987   3.904662
    10  N    5.819023   6.902903   5.591940   4.796365   5.685594
    11  O    3.756056   4.689455   2.983974   3.337138   4.072774
    12  O    3.176523   4.265257   3.047319   5.318930   2.978557
    13  C    6.323476   7.279405   5.684173   1.972143   6.634362
    14  H    7.294799   8.327247   6.682328   3.172979   7.309368
    15  H    6.268167   7.220389   5.480567   2.338979   6.373630
    16  H    5.624999   6.678459   5.171838   4.583883   5.343962
    17  H    6.188869   7.206477   5.872220   3.947446   6.363118
    18  H    5.296189   6.368250   5.250083   5.550689   5.078138
    19  H    2.197438   3.285472   2.191084   5.730926   2.080661
    20  N    6.341389   7.304801   5.890567   3.108288   6.664208
    21  O    6.809871   7.659919   6.047056   0.976762   7.272004
    22  H    6.752626   7.840192   6.538842   5.317497   6.534820
    23  H    6.636181   7.533499   6.212066   3.367740   7.071759
                    6          7          8          9         10
     6  H    0.000000
     7  C    6.173481   0.000000
     8  C    5.221370   1.539115   0.000000
     9  C    3.804292   2.477522   1.521354   0.000000
    10  N    5.473106   2.490045   1.475362   2.437797   0.000000
    11  O    3.778186   2.713305   2.421882   1.227938   3.463063
    12  O    3.053740   3.675826   2.369245   1.343831   2.723175
    13  C    6.029674   1.501385   2.510403   2.910818   2.976530
    14  H    7.170129   1.096474   2.174610   3.439769   2.743450
    15  H    6.332486   1.091969   2.160613   2.720492   3.423114
    16  H    5.689726   2.155888   1.098138   2.125307   2.149773
    17  H    5.661103   2.519443   2.441706   2.978788   1.790831
    18  H    4.892602   3.361625   2.081690   2.521535   1.019283
    19  H    2.129916   4.438671   3.267616   1.970601   3.659389
    20  N    5.839541   2.424215   2.862497   3.202261   2.678990
    21  O    6.561912   2.479133   3.676285   3.808636   4.290310
    22  H    6.432825   2.870528   2.098038   3.340478   1.017462
    23  H    6.040090   3.266985   3.740212   3.886820   3.484971
                   11         12         13         14         15
    11  O    0.000000
    12  O    2.286245   0.000000
    13  C    2.805572   4.080861   0.000000
    14  H    3.802225   4.512852   2.123434   0.000000
    15  H    2.621499   4.005259   2.130782   1.771124   0.000000
    16  H    3.026729   2.715358   3.444094   2.521757   2.433907
    17  H    3.495479   3.586095   1.988519   2.854401   3.533832
    18  H    3.656231   2.272415   3.754796   3.733008   4.195121
    19  H    2.471210   0.984055   4.687748   5.358426   4.644862
    20  N    3.341132   4.058317   1.297157   2.865865   3.290545
    21  O    3.286734   5.043936   1.321393   3.026220   2.612009
    22  H    4.362981   3.603113   3.526542   2.726407   3.819362
    23  H    3.865836   4.668148   1.932862   3.691701   4.040742
                   16         17         18         19         20
    16  H    0.000000
    17  H    3.467704   0.000000
    18  H    2.598926   2.375549   0.000000
    19  H    3.600926   4.303542   3.149942   0.000000
    20  N    3.923872   1.052876   3.310106   4.659557   0.000000
    21  O    4.517986   3.170662   5.029155   5.491796   2.236680
    22  H    2.421661   2.366391   1.672511   4.566362   3.262290
    23  H    4.815836   1.735260   3.999744   5.150086   0.913689
                   21         22         23
    21  O    0.000000
    22  H    4.836390   0.000000
    23  H    2.405671   4.064701   0.000000
 Stoichiometry    C5H13N2O3(1+)
 Framework group  C1[X(C5H13N2O3)]
 Deg. of freedom    63
 Full point group                 C1      NOp   1
 Largest Abelian subgroup         C1      NOp   1
 Largest concise Abelian subgroup C1      NOp   1
                         Standard orientation:                         
 ---------------------------------------------------------------------
 Center     Atomic      Atomic             Coordinates (Angstroms)
 Number     Number       Type             X           Y           Z
 ---------------------------------------------------------------------
      1          6           0       -4.369343   -0.940825    0.321624
      2          1           0       -5.273894   -1.543336    0.400686
      3          1           0       -3.654955   -1.475324   -0.308923
      4          1           0        2.342102   -2.249868   -0.876446
      5          1           0       -4.650134    0.017761   -0.123933
      6          1           0       -3.971462   -0.805587    1.331109
      7          6           0        1.651507    0.276082   -0.976287
      8          6           0        0.421247    1.157682   -0.696793
      9          6           0       -0.763591    0.243021   -0.424631
     10          7           0        0.635866    2.022996    0.478735
     11          8           0       -0.728174   -0.971853   -0.599729
     12          8           0       -1.820280    0.933091    0.036990
     13          6           0        1.945109   -0.633557    0.181518
     14          1           0        2.530872    0.904783   -1.159885
     15          1           0        1.469704   -0.321484   -1.871975
     16          1           0        0.190298    1.731624   -1.604075
     17          1           0        1.458283    0.789073    1.482797
     18          1           0       -0.245196    2.333635    0.886376
     19          1           0       -2.628586    0.394134    0.193613
     20          7           0        1.835200   -0.190148    1.395570
     21          8           0        2.369617   -1.875096    0.025137
     22          1           0        1.239006    2.819928    0.288079
     23          1           0        2.017619   -0.728836    2.110668
 ---------------------------------------------------------------------
 Rotational constants (GHZ):      1.8051507      0.7179825      0.6063009
 Leave Link  202 at Thu Mar 12 19:03:35 2020, MaxMem=    33554432 cpu:         0.0
 (Enter /usr/local/gaussian09d01/g09/l301.exe)
 Standard basis: 6-31G (6D, 7F)
 Ernie: Thresh=  0.10000D-02 Tol=  0.10000D-05 Strict=F.
 There are   116 symmetry adapted cartesian basis functions of A   symmetry.
 There are   116 symmetry adapted basis functions of A   symmetry.
   116 basis functions,   272 primitive gaussians,   116 cartesian basis functions
    40 alpha electrons       40 beta electrons
       nuclear repulsion energy       587.2507731022 Hartrees.
 IExCor= 4336 DFT=T Ex+Corr=M062X ExCW=0 ScaHFX=  0.540000
 ScaDFX=  1.000000  1.000000  1.000000  1.000000 ScalE2=  1.000000  1.000000
 IRadAn=      0 IRanWt=     -1 IRanGd=            0 ICorTp=0 IEmpDi=  4
 NAtoms=   23 NActive=   23 NUniq=   23 SFac= 1.00D+00 NAtFMM=   60 NAOKFM=F Big=F
 Integral buffers will be    131072 words long.
 Raffenetti 2 integral format.
 Two-electron integral symmetry is turned on.
 Leave Link  301 at Thu Mar 12 19:03:35 2020, MaxMem=    33554432 cpu:         0.0
 (Enter /usr/local/gaussian09d01/g09/l302.exe)
 NPDir=0 NMtPBC=     1 NCelOv=     1 NCel=       1 NClECP=     1 NCelD=      1
         NCelK=      1 NCelE2=     1 NClLst=     1 CellRange=     0.0.
 One-electron integrals computed using PRISM.
 NBasis=   116 RedAO= T EigKep=  3.51D-03  NBF=   116
 NBsUse=   116 1.00D-06 EigRej= -1.00D+00 NBFU=   116
 Precomputing XC quadrature grid using
 IXCGrd= 4 IRadAn=           0 IRanWt=          -1 IRanGd=           0 AccXCQ= 0.00D+00.
 Generated NRdTot=       0 NPtTot=           0 NUsed=           0 NTot=          32
 NSgBfM=   115   115   115   115   115 MxSgAt=    23 MxSgA2=    23.
 Leave Link  302 at Thu Mar 12 19:03:35 2020, MaxMem=    33554432 cpu:         0.3
 (Enter /usr/local/gaussian09d01/g09/l303.exe)
 DipDrv:  MaxL=1.
 Leave Link  303 at Thu Mar 12 19:03:35 2020, MaxMem=    33554432 cpu:         0.0
 (Enter /usr/local/gaussian09d01/g09/l401.exe)
 ExpMin= 1.61D-01 ExpMax= 5.48D+03 ExpMxC= 8.25D+02 IAcc=1 IRadAn=         1 AccDes= 0.00D+00
 Harris functional with IExCor= 1009 and IRadAn=       1 diagonalized for initial guess.
 HarFok:  IExCor= 1009 AccDes= 0.00D+00 IRadAn=         1 IDoV= 1 UseB2=F ITyADJ=14
 ICtDFT=  3500011 ScaDFX=  1.000000  1.000000  1.000000  1.000000
 FoFCou: FMM=F IPFlag=           0 FMFlag=      100000 FMFlg1=           0
         NFxFlg=           0 DoJE=T BraDBF=F KetDBF=T FulRan=T
         wScrn=  0.000000 ICntrl=     500 IOpCl=  0 I1Cent=   200000004 NGrid=           0
         NMat0=    1 NMatS0=      1 NMatT0=    0 NMatD0=    1 NMtDS0=    0 NMtDT0=    0
 Petite list used in FoFCou.
 Harris En= -532.734329226365    
 JPrj=0 DoOrth=F DoCkMO=F.
 Leave Link  401 at Thu Mar 12 19:03:36 2020, MaxMem=    33554432 cpu:         0.8
 (Enter /usr/local/gaussian09d01/g09/l502.exe)
 Closed shell SCF:
 Using DIIS extrapolation, IDIIS=  1040.
 Integral symmetry usage will be decided dynamically.
 Keep R1 ints in memory in canonical form, NReq=24030401.
 IVT=       60528 IEndB=       60528 NGot=    33554432 MDV=    10465614
 LenX=    10465614 LenY=    10451717
 Requested convergence on RMS density matrix=1.00D-08 within 128 cycles.
 Requested convergence on MAX density matrix=1.00D-06.
 Requested convergence on             energy=1.00D-06.
 No special actions if energy rises.
 FoFCou: FMM=F IPFlag=           0 FMFlag=           0 FMFlg1=           0
         NFxFlg=           0 DoJE=F BraDBF=F KetDBF=F FulRan=T
         wScrn=  0.000000 ICntrl=     600 IOpCl=  0 I1Cent=           0 NGrid=           0
         NMat0=    1 NMatS0=   6786 NMatT0=    0 NMatD0=    1 NMtDS0=    0 NMtDT0=    0
 Symmetry not used in FoFCou.
 Integral accuracy reduced to 1.0D-05 until final iterations.

 Cycle   1  Pass 0  IDiag  1:
 E= -532.636026193795    
 DIIS: error= 5.18D-02 at cycle   1 NSaved=   1.
 NSaved= 1 IEnMin= 1 EnMin= -532.636026193795     IErMin= 1 ErrMin= 5.18D-02
 ErrMax= 5.18D-02  0.00D+00 EMaxC= 1.00D-01 BMatC= 3.24D-01 BMatP= 3.24D-01
 IDIUse=3 WtCom= 4.82D-01 WtEn= 5.18D-01
 Coeff-Com:  0.100D+01
 Coeff-En:   0.100D+01
 Coeff:      0.100D+01
 Gap=     0.256 Goal=   None    Shift=    0.000
 GapD=    0.256 DampG=1.000 DampE=0.500 DampFc=0.5000 IDamp=-1.
 Damping current iteration by 5.00D-01
 RMSDP=8.44D-03 MaxDP=1.64D-01              OVMax= 1.76D-01

 Cycle   2  Pass 0  IDiag  1:
 E= -532.765736970131     Delta-E=       -0.129710776336 Rises=F Damp=T
 DIIS: error= 1.09D-02 at cycle   2 NSaved=   2.
 NSaved= 2 IEnMin= 2 EnMin= -532.765736970131     IErMin= 2 ErrMin= 1.09D-02
 ErrMax= 1.09D-02  0.00D+00 EMaxC= 1.00D-01 BMatC= 1.90D-02 BMatP= 3.24D-01
 IDIUse=3 WtCom= 8.91D-01 WtEn= 1.09D-01
 Coeff-Com:  0.313D-01 0.969D+00
 Coeff-En:   0.359D-01 0.964D+00
 Coeff:      0.318D-01 0.968D+00
 Gap=     0.359 Goal=   None    Shift=    0.000
 RMSDP=2.12D-03 MaxDP=3.51D-02 DE=-1.30D-01 OVMax= 1.10D-01

 Cycle   3  Pass 0  IDiag  1:
 E= -532.900164499645     Delta-E=       -0.134427529515 Rises=F Damp=F
 DIIS: error= 1.22D-02 at cycle   3 NSaved=   3.
 NSaved= 3 IEnMin= 3 EnMin= -532.900164499645     IErMin= 2 ErrMin= 1.09D-02
 ErrMax= 1.22D-02  0.00D+00 EMaxC= 1.00D-01 BMatC= 1.49D-02 BMatP= 1.90D-02
 IDIUse=3 WtCom= 8.78D-01 WtEn= 1.22D-01
 Coeff-Com: -0.231D-01 0.472D+00 0.551D+00
 Coeff-En:   0.000D+00 0.000D+00 0.100D+01
 Coeff:     -0.202D-01 0.414D+00 0.606D+00
 Gap=     0.332 Goal=   None    Shift=    0.000
 RMSDP=1.39D-03 MaxDP=3.65D-02 DE=-1.34D-01 OVMax= 5.68D-02

 Cycle   4  Pass 0  IDiag  1:
 E= -532.909650647279     Delta-E=       -0.009486147633 Rises=F Damp=F
 DIIS: error= 7.63D-03 at cycle   4 NSaved=   4.
 NSaved= 4 IEnMin= 4 EnMin= -532.909650647279     IErMin= 4 ErrMin= 7.63D-03
 ErrMax= 7.63D-03  0.00D+00 EMaxC= 1.00D-01 BMatC= 3.80D-03 BMatP= 1.49D-02
 IDIUse=3 WtCom= 9.24D-01 WtEn= 7.63D-02
 Coeff-Com: -0.651D-02 0.383D-01 0.342D+00 0.627D+00
 Coeff-En:   0.000D+00 0.000D+00 0.202D+00 0.798D+00
 Coeff:     -0.602D-02 0.354D-01 0.331D+00 0.640D+00
 Gap=     0.330 Goal=   None    Shift=    0.000
 RMSDP=5.41D-04 MaxDP=1.18D-02 DE=-9.49D-03 OVMax= 1.90D-02

 Cycle   5  Pass 0  IDiag  1:
 E= -532.912379976679     Delta-E=       -0.002729329401 Rises=F Damp=F
 DIIS: error= 1.24D-03 at cycle   5 NSaved=   5.
 NSaved= 5 IEnMin= 5 EnMin= -532.912379976679     IErMin= 5 ErrMin= 1.24D-03
 ErrMax= 1.24D-03  0.00D+00 EMaxC= 1.00D-01 BMatC= 1.76D-04 BMatP= 3.80D-03
 IDIUse=3 WtCom= 9.88D-01 WtEn= 1.24D-02
 Coeff-Com: -0.774D-03-0.754D-02 0.143D+00 0.331D+00 0.534D+00
 Coeff-En:   0.000D+00 0.000D+00 0.000D+00 0.000D+00 0.100D+01
 Coeff:     -0.765D-03-0.745D-02 0.141D+00 0.327D+00 0.540D+00
 Gap=     0.327 Goal=   None    Shift=    0.000
 RMSDP=1.11D-04 MaxDP=2.15D-03 DE=-2.73D-03 OVMax= 3.88D-03

 Cycle   6  Pass 0  IDiag  1:
 E= -532.912535716148     Delta-E=       -0.000155739469 Rises=F Damp=F
 DIIS: error= 2.87D-04 at cycle   6 NSaved=   6.
 NSaved= 6 IEnMin= 6 EnMin= -532.912535716148     IErMin= 6 ErrMin= 2.87D-04
 ErrMax= 2.87D-04  0.00D+00 EMaxC= 1.00D-01 BMatC= 4.44D-06 BMatP= 1.76D-04
 IDIUse=3 WtCom= 9.97D-01 WtEn= 2.87D-03
 Coeff-Com:  0.586D-03-0.408D-02 0.196D-01 0.389D-01 0.142D+00 0.803D+00
 Coeff-En:   0.000D+00 0.000D+00 0.000D+00 0.000D+00 0.000D+00 0.100D+01
 Coeff:      0.585D-03-0.407D-02 0.196D-01 0.387D-01 0.142D+00 0.804D+00
 Gap=     0.328 Goal=   None    Shift=    0.000
 RMSDP=2.63D-05 MaxDP=3.86D-04 DE=-1.56D-04 OVMax= 5.64D-04

 Cycle   7  Pass 0  IDiag  1:
 E= -532.912539890622     Delta-E=       -0.000004174474 Rises=F Damp=F
 DIIS: error= 9.20D-05 at cycle   7 NSaved=   7.
 NSaved= 7 IEnMin= 7 EnMin= -532.912539890622     IErMin= 7 ErrMin= 9.20D-05
 ErrMax= 9.20D-05  0.00D+00 EMaxC= 1.00D-01 BMatC= 5.75D-07 BMatP= 4.44D-06
 IDIUse=1 WtCom= 1.00D+00 WtEn= 0.00D+00
 Coeff-Com:  0.420D-03-0.638D-03-0.121D-01-0.348D-01-0.207D-01 0.261D+00
 Coeff-Com:  0.807D+00
 Coeff:      0.420D-03-0.638D-03-0.121D-01-0.348D-01-0.207D-01 0.261D+00
 Coeff:      0.807D+00
 Gap=     0.327 Goal=   None    Shift=    0.000
 RMSDP=1.34D-05 MaxDP=2.22D-04 DE=-4.17D-06 OVMax= 3.16D-04

 Cycle   8  Pass 0  IDiag  1:
 E= -532.912540561049     Delta-E=       -0.000000670427 Rises=F Damp=F
 DIIS: error= 2.62D-05 at cycle   8 NSaved=   8.
 NSaved= 8 IEnMin= 8 EnMin= -532.912540561049     IErMin= 8 ErrMin= 2.62D-05
 ErrMax= 2.62D-05  0.00D+00 EMaxC= 1.00D-01 BMatC= 5.99D-08 BMatP= 5.75D-07
 IDIUse=1 WtCom= 1.00D+00 WtEn= 0.00D+00
 Coeff-Com:  0.114D-03 0.958D-04-0.547D-02-0.155D-01-0.190D-01 0.124D-01
 Coeff-Com:  0.289D+00 0.738D+00
 Coeff:      0.114D-03 0.958D-04-0.547D-02-0.155D-01-0.190D-01 0.124D-01
 Coeff:      0.289D+00 0.738D+00
 Gap=     0.327 Goal=   None    Shift=    0.000
 RMSDP=3.65D-06 MaxDP=5.22D-05 DE=-6.70D-07 OVMax= 9.71D-05

 Initial convergence to 1.0D-05 achieved.  Increase integral accuracy.
 Cycle   9  Pass 1  IDiag  1:
 E= -532.912751708366     Delta-E=       -0.000211147317 Rises=F Damp=F
 DIIS: error= 1.35D-04 at cycle   1 NSaved=   1.
 NSaved= 1 IEnMin= 1 EnMin= -532.912751708366     IErMin= 1 ErrMin= 1.35D-04
 ErrMax= 1.35D-04  0.00D+00 EMaxC= 1.00D-01 BMatC= 1.70D-06 BMatP= 1.70D-06
 IDIUse=3 WtCom= 9.99D-01 WtEn= 1.35D-03
 Coeff-Com:  0.100D+01
 Coeff-En:   0.100D+01
 Coeff:      0.100D+01
 Gap=     0.327 Goal=   None    Shift=    0.000
 RMSDP=3.65D-06 MaxDP=5.22D-05 DE=-2.11D-04 OVMax= 1.98D-04

 Cycle  10  Pass 1  IDiag  1:
 E= -532.912753273350     Delta-E=       -0.000001564984 Rises=F Damp=F
 DIIS: error= 6.83D-05 at cycle   2 NSaved=   2.
 NSaved= 2 IEnMin= 2 EnMin= -532.912753273350     IErMin= 2 ErrMin= 6.83D-05
 ErrMax= 6.83D-05  0.00D+00 EMaxC= 1.00D-01 BMatC= 3.27D-07 BMatP= 1.70D-06
 IDIUse=1 WtCom= 1.00D+00 WtEn= 0.00D+00
 Coeff-Com:  0.227D+00 0.773D+00
 Coeff:      0.227D+00 0.773D+00
 Gap=     0.327 Goal=   None    Shift=    0.000
 RMSDP=7.05D-06 MaxDP=1.34D-04 DE=-1.56D-06 OVMax= 1.48D-04

 Cycle  11  Pass 1  IDiag  1:
 E= -532.912753514008     Delta-E=       -0.000000240657 Rises=F Damp=F
 DIIS: error= 2.92D-05 at cycle   3 NSaved=   3.
 NSaved= 3 IEnMin= 3 EnMin= -532.912753514008     IErMin= 3 ErrMin= 2.92D-05
 ErrMax= 2.92D-05  0.00D+00 EMaxC= 1.00D-01 BMatC= 1.15D-07 BMatP= 3.27D-07
 IDIUse=1 WtCom= 1.00D+00 WtEn= 0.00D+00
 Coeff-Com: -0.331D-01 0.357D+00 0.677D+00
 Coeff:     -0.331D-01 0.357D+00 0.677D+00
 Gap=     0.327 Goal=   None    Shift=    0.000
 RMSDP=3.26D-06 MaxDP=7.01D-05 DE=-2.41D-07 OVMax= 8.13D-05

 Cycle  12  Pass 1  IDiag  1:
 E= -532.912753609479     Delta-E=       -0.000000095471 Rises=F Damp=F
 DIIS: error= 8.29D-06 at cycle   4 NSaved=   4.
 NSaved= 4 IEnMin= 4 EnMin= -532.912753609479     IErMin= 4 ErrMin= 8.29D-06
 ErrMax= 8.29D-06  0.00D+00 EMaxC= 1.00D-01 BMatC= 9.61D-09 BMatP= 1.15D-07
 IDIUse=1 WtCom= 1.00D+00 WtEn= 0.00D+00
 Coeff-Com: -0.295D-01 0.150D+00 0.351D+00 0.528D+00
 Coeff:     -0.295D-01 0.150D+00 0.351D+00 0.528D+00
 Gap=     0.327 Goal=   None    Shift=    0.000
 RMSDP=7.70D-07 MaxDP=1.69D-05 DE=-9.55D-08 OVMax= 2.57D-05

 Cycle  13  Pass 1  IDiag  1:
 E= -532.912753617289     Delta-E=       -0.000000007810 Rises=F Damp=F
 DIIS: error= 2.23D-06 at cycle   5 NSaved=   5.
 NSaved= 5 IEnMin= 5 EnMin= -532.912753617289     IErMin= 5 ErrMin= 2.23D-06
 ErrMax= 2.23D-06  0.00D+00 EMaxC= 1.00D-01 BMatC= 3.15D-10 BMatP= 9.61D-09
 IDIUse=1 WtCom= 1.00D+00 WtEn= 0.00D+00
 Coeff-Com: -0.501D-02 0.615D-02 0.271D-01 0.143D+00 0.829D+00
 Coeff:     -0.501D-02 0.615D-02 0.271D-01 0.143D+00 0.829D+00
 Gap=     0.327 Goal=   None    Shift=    0.000
 RMSDP=3.01D-07 MaxDP=5.55D-06 DE=-7.81D-09 OVMax= 7.00D-06

 Cycle  14  Pass 1  IDiag  1:
 E= -532.912753617510     Delta-E=       -0.000000000221 Rises=F Damp=F
 DIIS: error= 1.64D-06 at cycle   6 NSaved=   6.
 NSaved= 6 IEnMin= 6 EnMin= -532.912753617510     IErMin= 6 ErrMin= 1.64D-06
 ErrMax= 1.64D-06  0.00D+00 EMaxC= 1.00D-01 BMatC= 1.75D-10 BMatP= 3.15D-10
 IDIUse=1 WtCom= 1.00D+00 WtEn= 0.00D+00
 Coeff-Com:  0.151D-02-0.178D-01-0.347D-01 0.136D-01 0.500D+00 0.538D+00
 Coeff:      0.151D-02-0.178D-01-0.347D-01 0.136D-01 0.500D+00 0.538D+00
 Gap=     0.327 Goal=   None    Shift=    0.000
 RMSDP=1.07D-07 MaxDP=3.15D-06 DE=-2.21D-10 OVMax= 5.53D-06

 Cycle  15  Pass 1  IDiag  1:
 E= -532.912753617656     Delta-E=       -0.000000000146 Rises=F Damp=F
 DIIS: error= 3.48D-07 at cycle   7 NSaved=   7.
 NSaved= 7 IEnMin= 7 EnMin= -532.912753617656     IErMin= 7 ErrMin= 3.48D-07
 ErrMax= 3.48D-07  0.00D+00 EMaxC= 1.00D-01 BMatC= 6.50D-12 BMatP= 1.75D-10
 IDIUse=1 WtCom= 1.00D+00 WtEn= 0.00D+00
 Coeff-Com:  0.819D-03-0.576D-02-0.128D-01-0.559D-02 0.682D-01 0.190D+00
 Coeff-Com:  0.765D+00
 Coeff:      0.819D-03-0.576D-02-0.128D-01-0.559D-02 0.682D-01 0.190D+00
 Coeff:      0.765D+00
 Gap=     0.327 Goal=   None    Shift=    0.000
 RMSDP=3.89D-08 MaxDP=7.19D-07 DE=-1.46D-10 OVMax= 9.81D-07

 Cycle  16  Pass 1  IDiag  1:
 E= -532.912753617664     Delta-E=       -0.000000000008 Rises=F Damp=F
 DIIS: error= 9.05D-08 at cycle   8 NSaved=   8.
 NSaved= 8 IEnMin= 8 EnMin= -532.912753617664     IErMin= 8 ErrMin= 9.05D-08
 ErrMax= 9.05D-08  0.00D+00 EMaxC= 1.00D-01 BMatC= 9.97D-13 BMatP= 6.50D-12
 IDIUse=1 WtCom= 1.00D+00 WtEn= 0.00D+00
 Coeff-Com:  0.136D-03 0.472D-04-0.644D-03-0.381D-02-0.471D-01 0.146D-01
 Coeff-Com:  0.333D+00 0.704D+00
 Coeff:      0.136D-03 0.472D-04-0.644D-03-0.381D-02-0.471D-01 0.146D-01
 Coeff:      0.333D+00 0.704D+00
 Gap=     0.327 Goal=   None    Shift=    0.000
 RMSDP=1.31D-08 MaxDP=2.35D-07 DE=-7.73D-12 OVMax= 4.11D-07

 Cycle  17  Pass 1  IDiag  1:
 E= -532.912753617670     Delta-E=       -0.000000000006 Rises=F Damp=F
 DIIS: error= 3.02D-08 at cycle   9 NSaved=   9.
 NSaved= 9 IEnMin= 9 EnMin= -532.912753617670     IErMin= 9 ErrMin= 3.02D-08
 ErrMax= 3.02D-08  0.00D+00 EMaxC= 1.00D-01 BMatC= 9.27D-14 BMatP= 9.97D-13
 IDIUse=1 WtCom= 1.00D+00 WtEn= 0.00D+00
 Coeff-Com: -0.309D-04 0.587D-03 0.105D-02-0.673D-03-0.245D-01-0.116D-01
 Coeff-Com:  0.345D-01 0.253D+00 0.748D+00
 Coeff:     -0.309D-04 0.587D-03 0.105D-02-0.673D-03-0.245D-01-0.116D-01
 Coeff:      0.345D-01 0.253D+00 0.748D+00
 Gap=     0.327 Goal=   None    Shift=    0.000
 RMSDP=4.69D-09 MaxDP=8.69D-08 DE=-6.14D-12 OVMax= 1.92D-07

 SCF Done:  E(RM062X) =  -532.912753618     A.U. after   17 cycles
            NFock= 17  Conv=0.47D-08     -V/T= 2.0051
 KE= 5.301994312829D+02 PE=-2.406509772548D+03 EE= 7.561468145449D+02
 Leave Link  502 at Thu Mar 12 19:04:31 2020, MaxMem=    33554432 cpu:        54.5
 (Enter /usr/local/gaussian09d01/g09/l601.exe)
 Copying SCF densities to generalized density rwf, IOpCl= 0 IROHF=0.

 **********************************************************************

            Population analysis using the SCF density.

 **********************************************************************

 Orbital symmetries:
       Occupied  (A) (A) (A) (A) (A) (A) (A) (A) (A) (A) (A) (A)
                 (A) (A) (A) (A) (A) (A) (A) (A) (A) (A) (A) (A)
                 (A) (A) (A) (A) (A) (A) (A) (A) (A) (A) (A) (A)
                 (A) (A) (A) (A)
       Virtual   (A) (A) (A) (A) (A) (A) (A) (A) (A) (A) (A) (A)
                 (A) (A) (A) (A) (A) (A) (A) (A) (A) (A) (A) (A)
                 (A) (A) (A) (A) (A) (A) (A) (A) (A) (A) (A) (A)
                 (A) (A) (A) (A) (A) (A) (A) (A) (A) (A) (A) (A)
                 (A) (A) (A) (A) (A) (A) (A) (A) (A) (A) (A) (A)
                 (A) (A) (A) (A) (A) (A) (A) (A) (A) (A) (A) (A)
                 (A) (A) (A) (A)
 The electronic state is 1-A.
 Alpha  occ. eigenvalues --  -19.88893 -19.84170 -19.80685 -14.98175 -14.93003
 Alpha  occ. eigenvalues --  -10.90053 -10.86321 -10.78091 -10.75652 -10.63111
 Alpha  occ. eigenvalues --   -1.43384  -1.40395  -1.31390  -1.26666  -1.18632
 Alpha  occ. eigenvalues --   -1.06885  -0.97465  -0.93802  -0.90083  -0.88057
 Alpha  occ. eigenvalues --   -0.85202  -0.79634  -0.77575  -0.74393  -0.73715
 Alpha  occ. eigenvalues --   -0.73329  -0.72664  -0.69386  -0.66522  -0.64914
 Alpha  occ. eigenvalues --   -0.63925  -0.62157  -0.60822  -0.57137  -0.56910
 Alpha  occ. eigenvalues --   -0.56865  -0.55976  -0.54307  -0.51741  -0.49462
 Alpha virt. eigenvalues --   -0.16713  -0.12385  -0.07018  -0.03029  -0.00785
 Alpha virt. eigenvalues --    0.00340   0.01428   0.01879   0.04540   0.04928
 Alpha virt. eigenvalues --    0.06393   0.07460   0.08085   0.10509   0.11049
 Alpha virt. eigenvalues --    0.11225   0.12137   0.12795   0.16032   0.18519
 Alpha virt. eigenvalues --    0.20310   0.23409   0.27660   0.38682   0.40971
 Alpha virt. eigenvalues --    0.43123   0.45754   0.46547   0.48115   0.48150
 Alpha virt. eigenvalues --    0.49526   0.51649   0.51969   0.54678   0.57972
 Alpha virt. eigenvalues --    0.58318   0.59705   0.63074   0.64042   0.67498
 Alpha virt. eigenvalues --    0.68187   0.70811   0.74303   0.75185   0.76763
 Alpha virt. eigenvalues --    0.78536   0.80596   0.83153   0.84125   0.85539
 Alpha virt. eigenvalues --    0.86837   0.87493   0.88001   0.88948   0.91232
 Alpha virt. eigenvalues --    0.92063   0.92285   0.94511   0.95108   0.96519
 Alpha virt. eigenvalues --    1.02377   1.04040   1.08926   1.11217   1.12003
 Alpha virt. eigenvalues --    1.15117   1.19096   1.27986   1.28636   1.33777
 Alpha virt. eigenvalues --    1.42448   1.53871   1.63538   1.76103   1.77057
 Alpha virt. eigenvalues --    1.86890
          Condensed to atoms (all electrons):
               1          2          3          4          5          6
     1  C    5.189372   0.375532   0.371666   0.000000   0.370144   0.370777
     2  H    0.375532   0.468515  -0.017906   0.000000  -0.019778  -0.020206
     3  H    0.371666  -0.017906   0.521288   0.000000  -0.029591  -0.030169
     4  H    0.000000   0.000000   0.000000   0.287177   0.000000   0.000000
     5  H    0.370144  -0.019778  -0.029591   0.000000   0.538207  -0.032263
     6  H    0.370777  -0.020206  -0.030169   0.000000  -0.032263   0.545284
     7  C    0.000000   0.000000  -0.000001  -0.005963   0.000000   0.000000
     8  C   -0.000004   0.000001   0.000083   0.000131  -0.000011  -0.000007
     9  C    0.000281   0.000037   0.001476   0.000055  -0.000154  -0.000131
    10  N    0.000000   0.000000  -0.000001   0.000023   0.000000   0.000000
    11  O   -0.001301   0.000015   0.003250   0.000347   0.000043   0.000016
    12  O   -0.005274   0.000175  -0.001615   0.000000  -0.000766  -0.000635
    13  C    0.000000   0.000000   0.000000  -0.015488   0.000000   0.000000
    14  H    0.000000   0.000000   0.000000   0.000020   0.000000   0.000000
    15  H    0.000000   0.000000   0.000000   0.003738   0.000000   0.000000
    16  H    0.000001   0.000000  -0.000002   0.000003   0.000000   0.000000
    17  H    0.000000   0.000000   0.000000  -0.000017   0.000000   0.000000
    18  H   -0.000001   0.000000   0.000000   0.000000   0.000000   0.000000
    19  H    0.027104  -0.000946   0.002071   0.000000   0.005217   0.004735
    20  N    0.000000   0.000000   0.000000   0.005703   0.000000   0.000000
    21  O    0.000000   0.000000   0.000000   0.257328   0.000000   0.000000
    22  H    0.000000   0.000000   0.000000  -0.000001   0.000000   0.000000
    23  H    0.000000   0.000000   0.000000  -0.000074   0.000000   0.000000
               7          8          9         10         11         12
     1  C    0.000000  -0.000004   0.000281   0.000000  -0.001301  -0.005274
     2  H    0.000000   0.000001   0.000037   0.000000   0.000015   0.000175
     3  H   -0.000001   0.000083   0.001476  -0.000001   0.003250  -0.001615
     4  H   -0.005963   0.000131   0.000055   0.000023   0.000347   0.000000
     5  H    0.000000  -0.000011  -0.000154   0.000000   0.000043  -0.000766
     6  H    0.000000  -0.000007  -0.000131   0.000000   0.000016  -0.000635
     7  C    5.438848   0.216830  -0.048127  -0.073585   0.007818   0.005365
     8  C    0.216830   5.570150   0.151190   0.193267  -0.124317  -0.148149
     9  C   -0.048127   0.151190   4.754244  -0.049338   0.494408   0.196393
    10  N   -0.073585   0.193267  -0.049338   7.095786   0.002203   0.001772
    11  O    0.007818  -0.124317   0.494408   0.002203   8.124921  -0.108464
    12  O    0.005365  -0.148149   0.196393   0.001772  -0.108464   8.415913
    13  C    0.262050  -0.016493  -0.007472  -0.007781   0.011583  -0.000514
    14  H    0.375851  -0.027594   0.005580  -0.001454   0.000419  -0.000025
    15  H    0.366747  -0.027362  -0.001934   0.003765   0.004664   0.000131
    16  H   -0.043295   0.385671  -0.026853  -0.035690   0.001072   0.000894
    17  H   -0.011168  -0.010842  -0.000580   0.096439   0.000193  -0.000076
    18  H    0.004836  -0.034169  -0.007441   0.320778   0.000225   0.013164
    19  H   -0.000158   0.005388  -0.018817  -0.000117  -0.000685   0.236993
    20  N   -0.099126   0.003974   0.000089  -0.075473  -0.003474   0.000054
    21  O   -0.065342   0.002747  -0.000504  -0.000166  -0.001659  -0.000001
    22  H   -0.000904  -0.029170   0.004131   0.322211  -0.000080  -0.000002
    23  H    0.004434  -0.000278  -0.000109   0.001556   0.000035   0.000005
              13         14         15         16         17         18
     1  C    0.000000   0.000000   0.000000   0.000001   0.000000  -0.000001
     2  H    0.000000   0.000000   0.000000   0.000000   0.000000   0.000000
     3  H    0.000000   0.000000   0.000000  -0.000002   0.000000   0.000000
     4  H   -0.015488   0.000020   0.003738   0.000003  -0.000017   0.000000
     5  H    0.000000   0.000000   0.000000   0.000000   0.000000   0.000000
     6  H    0.000000   0.000000   0.000000   0.000000   0.000000   0.000000
     7  C    0.262050   0.375851   0.366747  -0.043295  -0.011168   0.004836
     8  C   -0.016493  -0.027594  -0.027362   0.385671  -0.010842  -0.034169
     9  C   -0.007472   0.005580  -0.001934  -0.026853  -0.000580  -0.007441
    10  N   -0.007781  -0.001454   0.003765  -0.035690   0.096439   0.320778
    11  O    0.011583   0.000419   0.004664   0.001072   0.000193   0.000225
    12  O   -0.000514  -0.000025   0.000131   0.000894  -0.000076   0.013164
    13  C    4.617166  -0.035046  -0.031204   0.004055  -0.017059   0.000213
    14  H   -0.035046   0.440191  -0.015818  -0.003241  -0.000257  -0.000053
    15  H   -0.031204  -0.015818   0.464219  -0.000708   0.000409  -0.000101
    16  H    0.004055  -0.003241  -0.000708   0.459311   0.000991   0.000990
    17  H   -0.017059  -0.000257   0.000409   0.000991   0.249612  -0.000479
    18  H    0.000213  -0.000053  -0.000101   0.000990  -0.000479   0.336848
    19  H   -0.000011   0.000002  -0.000002  -0.000246  -0.000020  -0.000257
    20  N    0.334276  -0.001757   0.004459  -0.000316   0.231750   0.000286
    21  O    0.329626   0.001040  -0.002788  -0.000071   0.001090   0.000002
    22  H   -0.000221   0.001612  -0.000071  -0.003798  -0.001569  -0.020724
    23  H   -0.018376  -0.000154  -0.000071   0.000012  -0.003119  -0.000015
              19         20         21         22         23
     1  C    0.027104   0.000000   0.000000   0.000000   0.000000
     2  H   -0.000946   0.000000   0.000000   0.000000   0.000000
     3  H    0.002071   0.000000   0.000000   0.000000   0.000000
     4  H    0.000000   0.005703   0.257328  -0.000001  -0.000074
     5  H    0.005217   0.000000   0.000000   0.000000   0.000000
     6  H    0.004735   0.000000   0.000000   0.000000   0.000000
     7  C   -0.000158  -0.099126  -0.065342  -0.000904   0.004434
     8  C    0.005388   0.003974   0.002747  -0.029170  -0.000278
     9  C   -0.018817   0.000089  -0.000504   0.004131  -0.000109
    10  N   -0.000117  -0.075473  -0.000166   0.322211   0.001556
    11  O   -0.000685  -0.003474  -0.001659  -0.000080   0.000035
    12  O    0.236993   0.000054  -0.000001  -0.000002   0.000005
    13  C   -0.000011   0.334276   0.329626  -0.000221  -0.018376
    14  H    0.000002  -0.001757   0.001040   0.001612  -0.000154
    15  H   -0.000002   0.004459  -0.002788  -0.000071  -0.000071
    16  H   -0.000246  -0.000316  -0.000071  -0.003798   0.000012
    17  H   -0.000020   0.231750   0.001090  -0.001569  -0.003119
    18  H   -0.000257   0.000286   0.000002  -0.020724  -0.000015
    19  H    0.274516   0.000011   0.000000   0.000016  -0.000001
    20  N    0.000011   7.031550  -0.113674   0.000928   0.328534
    21  O    0.000000  -0.113674   8.137255   0.000002  -0.001039
    22  H    0.000016   0.000928   0.000002   0.369498  -0.000023
    23  H   -0.000001   0.328534  -0.001039  -0.000023   0.306486
 Mulliken charges:
               1
     1  C   -0.698298
     2  H    0.214561
     3  H    0.179450
     4  H    0.467018
     5  H    0.168952
     6  H    0.162598
     7  C   -0.335109
     8  C   -0.111037
     9  C    0.553575
    10  N   -0.794195
    11  O   -0.411232
    12  O   -0.605337
    13  C    0.590696
    14  H    0.260685
    15  H    0.231929
    16  H    0.261219
    17  H    0.464702
    18  H    0.385901
    19  H    0.465206
    20  N   -0.647794
    21  O   -0.543848
    22  H    0.358163
    23  H    0.382197
 Sum of Mulliken charges =   1.00000
 Mulliken charges with hydrogens summed into heavy atoms:
               1
     1  C    0.027262
     7  C    0.157505
     8  C    0.150181
     9  C    0.553575
    10  N   -0.050131
    11  O   -0.411232
    12  O   -0.140131
    13  C    0.590696
    20  N    0.199105
    21  O   -0.076830
 Electronic spatial extent (au):  <R**2>=           1993.2354
 Charge=              1.0000 electrons
 Dipole moment (field-independent basis, Debye):
    X=              4.6654    Y=              2.0115    Z=             -0.3633  Tot=              5.0935
 Quadrupole moment (field-independent basis, Debye-Ang):
   XX=            -33.4597   YY=            -48.1796   ZZ=            -48.4169
   XY=             -0.8097   XZ=             -3.9430   YZ=              1.4593
 Traceless Quadrupole moment (field-independent basis, Debye-Ang):
   XX=              9.8924   YY=             -4.8276   ZZ=             -5.0648
   XY=             -0.8097   XZ=             -3.9430   YZ=              1.4593
 Octapole moment (field-independent basis, Debye-Ang**2):
  XXX=            -20.7578  YYY=             15.8127  ZZZ=             10.5604  XYY=             23.7317
  XXY=            -17.0904  XXZ=             -1.7671  XZZ=             22.1234  YZZ=             -4.9081
  YYZ=             -6.1080  XYZ=              7.5137
 Hexadecapole moment (field-independent basis, Debye-Ang**3):
 XXXX=          -1428.9514 YYYY=           -427.3759 ZZZZ=           -199.5656 XXXY=             25.9685
 XXXZ=            -33.2447 YYYX=            -16.0099 YYYZ=             39.5037 ZZZX=             24.6556
 ZZZY=             -3.1578 XXYY=           -330.1082 XXZZ=           -292.1621 YYZZ=           -109.8154
 XXYZ=             12.2502 YYXZ=            -26.7397 ZZXY=            -27.7907
 N-N= 5.872507731022D+02 E-N=-2.406509773662D+03  KE= 5.301994312829D+02
 No NMR shielding tensors so no spin-rotation constants.
 Leave Link  601 at Thu Mar 12 19:04:31 2020, MaxMem=    33554432 cpu:         0.1
 (Enter /usr/local/gaussian09d01/g09/l9999.exe)
 1\1\GINC-KARURA\SP\RM062X\6-31G\C5H13N2O3(1+)\RTAKE\12-Mar-2020\0\\#p 
 M062X/6-31G\\chk calc\\1,1\C,0,3.824482709,-1.14219544,1.17225369\H,0,
 4.799113079,-1.62961423,1.173808707\H,0,3.053614027,-1.916312598,1.160
 804944\H,0,-2.540416453,-2.844981592,-1.014302773\H,0,3.75960642,-0.53
 291794,2.07824618\H,0,3.765323683,-0.52154146,0.273951194\C,0,-2.40154
 2122,-0.705499021,0.492562549\C,0,-1.33365594,0.193207044,1.141270536\
 C,0,0.021967089,-0.47033751,0.950186539\N,0,-1.303304814,1.529148773,0
 .515945207\O,0,0.155929117,-1.611462803,0.51692019\O,0,1.024922388,0.3
 53392554,1.298656\C,0,-2.121889445,-0.918337302,-0.967112723\H,0,-3.39
 229932,-0.247402335,0.596496855\H,0,-2.419176945,-1.669900059,1.004436
 439\H,0,-1.526304416,0.239474424,2.221387894\H,0,-1.503902114,0.960750
 702,-1.170400229\H,0,-0.410560182,1.997532273,0.666150752\H,0,1.924402
 159,-0.039925506,1.230818645\N,0,-1.700457396,0.069239192,-1.694919761
 \O,0,-2.336854815,-2.071648312,-1.575178364\H,0,-2.071900591,2.1285565
 43,0.807834339\H,0,-1.533013601,-0.042135766,-2.586202984\\Version=ES6
 4L-G09RevD.01\State=1-A\HF=-532.9127536\RMSD=4.692e-09\Dipole=-1.89216
 17,0.6235211,-0.2160786\Quadrupole=7.2193081,-2.7136756,-4.5056325,1.9
 675065,2.6181481,0.3049568\PG=C01 [X(C5H13N2O3)]\\@


 IT CANNOT BE MY BEAUTY, FOR I HAVE NONE; AND IT CANNOT BE MY WIT,
 FOR HE HAS NOT ENOUGH TO KNOW THAT I HAVE ANY.
 -- CATHARINE SEDLEY, PUZZLED ABOUT WHY SHE WAS MISTRESS TO JAMES II
 Job cpu time:       0 days  0 hours  0 minutes 55.9 seconds.
 File lengths (MBytes):  RWF=      7 Int=      0 D2E=      0 Chk=      2 Scr=      1
 Normal termination of Gaussian 09 at Thu Mar 12 19:04:31 2020.
