 Entering Gaussian System, Link 0=g09
 Input=./n20_h23_14.gjf
 Output=./n20_h23_14.log
 Initial command:
 /usr/local/gaussian09d01/g09/l1.exe "/scr/Gau-20165.inp" -scrdir="/scr/"
 Entering Link 1 = /usr/local/gaussian09d01/g09/l1.exe PID=     20166.
  
 Copyright (c) 1988,1990,1992,1993,1995,1998,2003,2009,2013,
            Gaussian, Inc.  All Rights Reserved.
  
 This is part of the Gaussian(R) 09 program.  It is based on
 the Gaussian(R) 03 system (copyright 2003, Gaussian, Inc.),
 the Gaussian(R) 98 system (copyright 1998, Gaussian, Inc.),
 the Gaussian(R) 94 system (copyright 1995, Gaussian, Inc.),
 the Gaussian 92(TM) system (copyright 1992, Gaussian, Inc.),
 the Gaussian 90(TM) system (copyright 1990, Gaussian, Inc.),
 the Gaussian 88(TM) system (copyright 1988, Gaussian, Inc.),
 the Gaussian 86(TM) system (copyright 1986, Carnegie Mellon
 University), and the Gaussian 82(TM) system (copyright 1983,
 Carnegie Mellon University). Gaussian is a federally registered
 trademark of Gaussian, Inc.
  
 This software contains proprietary and confidential information,
 including trade secrets, belonging to Gaussian, Inc.
  
 This software is provided under written license and may be
 used, copied, transmitted, or stored only in accord with that
 written license.
  
 The following legend is applicable only to US Government
 contracts under FAR:
  
                    RESTRICTED RIGHTS LEGEND
  
 Use, reproduction and disclosure by the US Government is
 subject to restrictions as set forth in subparagraphs (a)
 and (c) of the Commercial Computer Software - Restricted
 Rights clause in FAR 52.227-19.
  
 Gaussian, Inc.
 340 Quinnipiac St., Bldg. 40, Wallingford CT 06492
  
  
 ---------------------------------------------------------------
 Warning -- This program may not be used in any manner that
 competes with the business of Gaussian, Inc. or will provide
 assistance to any competitor of Gaussian, Inc.  The licensee
 of this program is prohibited from giving any competitor of
 Gaussian, Inc. access to this program.  By using this program,
 the user acknowledges that Gaussian, Inc. is engaged in the
 business of creating and licensing software in the field of
 computational chemistry and represents and warrants to the
 licensee that it is not a competitor of Gaussian, Inc. and that
 it will not use this program in any manner prohibited above.
 ---------------------------------------------------------------
  

 Cite this work as:
 Gaussian 09, Revision D.01,
 M. J. Frisch, G. W. Trucks, H. B. Schlegel, G. E. Scuseria, 
 M. A. Robb, J. R. Cheeseman, G. Scalmani, V. Barone, B. Mennucci, 
 G. A. Petersson, H. Nakatsuji, M. Caricato, X. Li, H. P. Hratchian, 
 A. F. Izmaylov, J. Bloino, G. Zheng, J. L. Sonnenberg, M. Hada, 
 M. Ehara, K. Toyota, R. Fukuda, J. Hasegawa, M. Ishida, T. Nakajima, 
 Y. Honda, O. Kitao, H. Nakai, T. Vreven, J. A. Montgomery, Jr., 
 J. E. Peralta, F. Ogliaro, M. Bearpark, J. J. Heyd, E. Brothers, 
 K. N. Kudin, V. N. Staroverov, T. Keith, R. Kobayashi, J. Normand, 
 K. Raghavachari, A. Rendell, J. C. Burant, S. S. Iyengar, J. Tomasi, 
 M. Cossi, N. Rega, J. M. Millam, M. Klene, J. E. Knox, J. B. Cross, 
 V. Bakken, C. Adamo, J. Jaramillo, R. Gomperts, R. E. Stratmann, 
 O. Yazyev, A. J. Austin, R. Cammi, C. Pomelli, J. W. Ochterski, 
 R. L. Martin, K. Morokuma, V. G. Zakrzewski, G. A. Voth, 
 P. Salvador, J. J. Dannenberg, S. Dapprich, A. D. Daniels, 
 O. Farkas, J. B. Foresman, J. V. Ortiz, J. Cioslowski, 
 and D. J. Fox, Gaussian, Inc., Wallingford CT, 2013.
 
 ******************************************
 Gaussian 09:  ES64L-G09RevD.01 24-Apr-2013
                12-Mar-2020 
 ******************************************
 --------------
 #p M062X/6-31G
 --------------
 1/38=1/1;
 2/12=2,17=6,18=5,40=1/2;
 3/5=1,6=6,11=2,16=1,25=1,30=1,74=-55/1,2,3;
 4//1;
 5/5=2,38=5/2;
 6/7=2,8=2,9=2,10=2,28=1/1;
 99/5=1,9=1/99;
 Leave Link    1 at Thu Mar 12 19:07:27 2020, MaxMem=           0 cpu:         0.0
 (Enter /usr/local/gaussian09d01/g09/l101.exe)
 --------
 chk calc
 --------
 Symbolic Z-matrix:
 Charge =  1 Multiplicity = 1
 C                     3.82448  -1.1422    1.17225 
 H                     4.79911  -1.62961   1.17381 
 H                     3.05361  -1.91631   1.1608 
 H                    -2.54042  -2.84498  -1.0143 
 H                     3.75961  -0.53292   2.07825 
 H                     3.76532  -0.52154   0.27395 
 C                    -2.40154  -0.7055    0.49256 
 C                    -1.33366   0.19321   1.14127 
 C                     0.02197  -0.47034   0.95019 
 N                    -1.3033    1.52915   0.51595 
 O                     0.15593  -1.61146   0.51692 
 O                     1.02492   0.35339   1.29866 
 C                    -2.12189  -0.91834  -0.96711 
 H                    -3.3923   -0.2474    0.5965 
 H                    -2.41918  -1.6699    1.00444 
 H                    -1.5263    0.23947   2.22139 
 H                    -1.5039    0.96075  -1.1704 
 H                    -0.41056   1.99753   0.66615 
 H                     1.9244   -0.03993   1.23082 
 N                    -1.70046   0.06924  -1.69492 
 O                    -2.33685  -2.07165  -1.57518 
 H                    -2.0719    2.12856   0.80783 
 H                    -1.43999  -0.10401  -3.08136 
 
 NAtoms=     23 NQM=       23 NQMF=       0 NMMI=      0 NMMIF=      0
                NMic=       0 NMicF=      0.
                    Isotopes and Nuclear Properties:
 (Nuclear quadrupole moments (NQMom) in fm**2, nuclear magnetic moments (NMagM)
  in nuclear magnetons)

  Atom         1           2           3           4           5           6           7           8           9          10
 IAtWgt=          12           1           1           1           1           1          12          12          12          14
 AtmWgt=  12.0000000   1.0078250   1.0078250   1.0078250   1.0078250   1.0078250  12.0000000  12.0000000  12.0000000  14.0030740
 NucSpn=           0           1           1           1           1           1           0           0           0           2
 AtZEff=   0.0000000   0.0000000   0.0000000   0.0000000   0.0000000   0.0000000   0.0000000   0.0000000   0.0000000   0.0000000
 NQMom=    0.0000000   0.0000000   0.0000000   0.0000000   0.0000000   0.0000000   0.0000000   0.0000000   0.0000000   2.0440000
 NMagM=    0.0000000   2.7928460   2.7928460   2.7928460   2.7928460   2.7928460   0.0000000   0.0000000   0.0000000   0.4037610
 AtZNuc=   6.0000000   1.0000000   1.0000000   1.0000000   1.0000000   1.0000000   6.0000000   6.0000000   6.0000000   7.0000000

  Atom        11          12          13          14          15          16          17          18          19          20
 IAtWgt=          16          16          12           1           1           1           1           1           1          14
 AtmWgt=  15.9949146  15.9949146  12.0000000   1.0078250   1.0078250   1.0078250   1.0078250   1.0078250   1.0078250  14.0030740
 NucSpn=           0           0           0           1           1           1           1           1           1           2
 AtZEff=   0.0000000   0.0000000   0.0000000   0.0000000   0.0000000   0.0000000   0.0000000   0.0000000   0.0000000   0.0000000
 NQMom=    0.0000000   0.0000000   0.0000000   0.0000000   0.0000000   0.0000000   0.0000000   0.0000000   0.0000000   2.0440000
 NMagM=    0.0000000   0.0000000   0.0000000   2.7928460   2.7928460   2.7928460   2.7928460   2.7928460   2.7928460   0.4037610
 AtZNuc=   8.0000000   8.0000000   6.0000000   1.0000000   1.0000000   1.0000000   1.0000000   1.0000000   1.0000000   7.0000000

  Atom        21          22          23
 IAtWgt=          16           1           1
 AtmWgt=  15.9949146   1.0078250   1.0078250
 NucSpn=           0           1           1
 AtZEff=   0.0000000   0.0000000   0.0000000
 NQMom=    0.0000000   0.0000000   0.0000000
 NMagM=    0.0000000   2.7928460   2.7928460
 AtZNuc=   8.0000000   1.0000000   1.0000000
 Leave Link  101 at Thu Mar 12 19:07:27 2020, MaxMem=    33554432 cpu:         0.0
 (Enter /usr/local/gaussian09d01/g09/l202.exe)
                          Input orientation:                          
 ---------------------------------------------------------------------
 Center     Atomic      Atomic             Coordinates (Angstroms)
 Number     Number       Type             X           Y           Z
 ---------------------------------------------------------------------
      1          6           0        3.824483   -1.142195    1.172254
      2          1           0        4.799113   -1.629614    1.173809
      3          1           0        3.053614   -1.916313    1.160805
      4          1           0       -2.540416   -2.844982   -1.014303
      5          1           0        3.759606   -0.532918    2.078246
      6          1           0        3.765324   -0.521541    0.273951
      7          6           0       -2.401542   -0.705499    0.492563
      8          6           0       -1.333656    0.193207    1.141271
      9          6           0        0.021967   -0.470338    0.950187
     10          7           0       -1.303305    1.529149    0.515945
     11          8           0        0.155929   -1.611463    0.516920
     12          8           0        1.024922    0.353393    1.298656
     13          6           0       -2.121889   -0.918337   -0.967113
     14          1           0       -3.392299   -0.247402    0.596497
     15          1           0       -2.419177   -1.669900    1.004436
     16          1           0       -1.526304    0.239474    2.221388
     17          1           0       -1.503902    0.960751   -1.170400
     18          1           0       -0.410560    1.997532    0.666151
     19          1           0        1.924402   -0.039926    1.230819
     20          7           0       -1.700457    0.069239   -1.694920
     21          8           0       -2.336855   -2.071648   -1.575178
     22          1           0       -2.071901    2.128557    0.807834
     23          1           0       -1.439989   -0.104011   -3.081360
 ---------------------------------------------------------------------
                    Distance matrix (angstroms):
                    1          2          3          4          5
     1  C    0.000000
     2  H    1.089717   0.000000
     3  H    1.092532   1.768935   0.000000
     4  H    6.942078   7.754589   6.073442   0.000000
     5  H    1.093732   1.761058   1.803858   7.389167   0.000000
     6  H    1.093462   1.762467   1.799563   6.842538   1.804340
     7  C    6.278222   7.291606   5.627730   2.620556   6.364270
     8  C    5.328288   6.398015   4.868120   3.915783   5.229388
     9  C    3.867794   4.920879   3.365425   4.007987   3.904662
    10  N    5.819023   6.902903   5.591940   4.796365   5.685594
    11  O    3.756056   4.689455   2.983974   3.337138   4.072774
    12  O    3.176523   4.265257   3.047319   5.318930   2.978557
    13  C    6.323476   7.279405   5.684173   1.972143   6.634362
    14  H    7.294799   8.327247   6.682328   3.172979   7.309368
    15  H    6.268167   7.220389   5.480567   2.338979   6.373630
    16  H    5.624999   6.678459   5.171838   4.583883   5.343962
    17  H    6.188869   7.206477   5.872220   3.947446   6.363118
    18  H    5.296189   6.368250   5.250083   5.550689   5.078138
    19  H    2.197438   3.285472   2.191084   5.730926   2.080661
    20  N    6.341389   7.304801   5.890567   3.108288   6.664208
    21  O    6.809871   7.659919   6.047056   0.976762   7.272004
    22  H    6.752626   7.840192   6.538842   5.317497   6.534820
    23  H    6.847315   7.704565   6.439944   3.605078   7.337663
                    6          7          8          9         10
     6  H    0.000000
     7  C    6.173481   0.000000
     8  C    5.221370   1.539115   0.000000
     9  C    3.804292   2.477522   1.521354   0.000000
    10  N    5.473106   2.490045   1.475362   2.437797   0.000000
    11  O    3.778186   2.713305   2.421882   1.227938   3.463063
    12  O    3.053740   3.675826   2.369245   1.343831   2.723175
    13  C    6.029674   1.501385   2.510403   2.910818   2.976530
    14  H    7.170129   1.096474   2.174610   3.439769   2.743450
    15  H    6.332486   1.091969   2.160613   2.720492   3.423114
    16  H    5.689726   2.155888   1.098138   2.125307   2.149773
    17  H    5.661103   2.519443   2.441706   2.978788   1.790831
    18  H    4.892602   3.361625   2.081690   2.521535   1.019283
    19  H    2.129916   4.438671   3.267616   1.970601   3.659389
    20  N    5.839541   2.424215   2.862497   3.202261   2.678990
    21  O    6.561912   2.479133   3.676285   3.808636   4.290310
    22  H    6.432825   2.870528   2.098038   3.340478   1.017462
    23  H    6.207071   3.749573   4.234413   4.304054   3.953037
                   11         12         13         14         15
    11  O    0.000000
    12  O    2.286245   0.000000
    13  C    2.805572   4.080861   0.000000
    14  H    3.802225   4.512852   2.123434   0.000000
    15  H    2.621499   4.005259   2.130782   1.771124   0.000000
    16  H    3.026729   2.715358   3.444094   2.521757   2.433907
    17  H    3.495479   3.586095   1.988519   2.854401   3.533832
    18  H    3.656231   2.272415   3.754796   3.733008   4.195121
    19  H    2.471210   0.984055   4.687748   5.358426   4.644862
    20  N    3.341132   4.058317   1.297157   2.865865   3.290545
    21  O    3.286734   5.043936   1.321393   3.026220   2.612009
    22  H    4.362981   3.603113   3.526542   2.726407   3.819362
    23  H    4.215091   5.046737   2.366043   4.166378   4.483810
                   16         17         18         19         20
    16  H    0.000000
    17  H    3.467704   0.000000
    18  H    2.598926   2.375549   0.000000
    19  H    3.600926   4.303542   3.149942   0.000000
    20  N    3.923872   1.052876   3.310106   4.659557   0.000000
    21  O    4.517986   3.170662   5.029155   5.491796   2.236680
    22  H    2.421661   2.366391   1.672511   4.566362   3.262290
    23  H    5.314562   2.188509   4.418150   5.469746   1.421294
                   21         22         23
    21  O    0.000000
    22  H    4.836390   0.000000
    23  H    2.635251   4.528742   0.000000
 Stoichiometry    C5H13N2O3(1+)
 Framework group  C1[X(C5H13N2O3)]
 Deg. of freedom    63
 Full point group                 C1      NOp   1
 Largest Abelian subgroup         C1      NOp   1
 Largest concise Abelian subgroup C1      NOp   1
                         Standard orientation:                         
 ---------------------------------------------------------------------
 Center     Atomic      Atomic             Coordinates (Angstroms)
 Number     Number       Type             X           Y           Z
 ---------------------------------------------------------------------
      1          6           0       -4.366844   -0.954378    0.316941
      2          1           0       -5.269414   -1.560613    0.389936
      3          1           0       -3.653033   -1.477326   -0.323860
      4          1           0        2.344288   -2.225978   -0.922492
      5          1           0       -4.651829    0.009946   -0.113307
      6          1           0       -3.966010   -0.833097    1.327031
      7          6           0        1.646199    0.299178   -0.982282
      8          6           0        0.414373    1.172945   -0.685615
      9          6           0       -0.766957    0.250900   -0.423296
     10          7           0        0.630424    2.021205    0.502017
     11          8           0       -0.728671   -0.961114   -0.616662
     12          8           0       -1.824067    0.930937    0.052044
     13          6           0        1.946212   -0.626816    0.160821
     14          1           0        2.523163    0.933090   -1.159327
     15          1           0        1.463129   -0.285455   -1.886210
     16          1           0        0.178794    1.759716   -1.583451
     17          1           0        1.459659    0.774791    1.484818
     18          1           0       -0.250163    2.323170    0.917135
     19          1           0       -2.630317    0.387367    0.203228
     20          7           0        1.839063   -0.201924    1.381722
     21          8           0        2.373723   -1.864647   -0.015499
     22          1           0        1.230665    2.822637    0.321335
     23          1           0        2.128883   -1.055596    2.480506
 ---------------------------------------------------------------------
 Rotational constants (GHZ):      1.7904935      0.7156373      0.6055967
 Leave Link  202 at Thu Mar 12 19:07:27 2020, MaxMem=    33554432 cpu:         0.0
 (Enter /usr/local/gaussian09d01/g09/l301.exe)
 Standard basis: 6-31G (6D, 7F)
 Ernie: Thresh=  0.10000D-02 Tol=  0.10000D-05 Strict=F.
 There are   116 symmetry adapted cartesian basis functions of A   symmetry.
 There are   116 symmetry adapted basis functions of A   symmetry.
   116 basis functions,   272 primitive gaussians,   116 cartesian basis functions
    40 alpha electrons       40 beta electrons
       nuclear repulsion energy       584.5914800362 Hartrees.
 IExCor= 4336 DFT=T Ex+Corr=M062X ExCW=0 ScaHFX=  0.540000
 ScaDFX=  1.000000  1.000000  1.000000  1.000000 ScalE2=  1.000000  1.000000
 IRadAn=      0 IRanWt=     -1 IRanGd=            0 ICorTp=0 IEmpDi=  4
 NAtoms=   23 NActive=   23 NUniq=   23 SFac= 1.00D+00 NAtFMM=   60 NAOKFM=F Big=F
 Integral buffers will be    131072 words long.
 Raffenetti 2 integral format.
 Two-electron integral symmetry is turned on.
 Leave Link  301 at Thu Mar 12 19:07:27 2020, MaxMem=    33554432 cpu:         0.0
 (Enter /usr/local/gaussian09d01/g09/l302.exe)
 NPDir=0 NMtPBC=     1 NCelOv=     1 NCel=       1 NClECP=     1 NCelD=      1
         NCelK=      1 NCelE2=     1 NClLst=     1 CellRange=     0.0.
 One-electron integrals computed using PRISM.
 NBasis=   116 RedAO= T EigKep=  3.57D-03  NBF=   116
 NBsUse=   116 1.00D-06 EigRej= -1.00D+00 NBFU=   116
 Precomputing XC quadrature grid using
 IXCGrd= 4 IRadAn=           0 IRanWt=          -1 IRanGd=           0 AccXCQ= 0.00D+00.
 Generated NRdTot=       0 NPtTot=           0 NUsed=           0 NTot=          32
 NSgBfM=   115   115   115   115   115 MxSgAt=    23 MxSgA2=    23.
 Leave Link  302 at Thu Mar 12 19:07:27 2020, MaxMem=    33554432 cpu:         0.3
 (Enter /usr/local/gaussian09d01/g09/l303.exe)
 DipDrv:  MaxL=1.
 Leave Link  303 at Thu Mar 12 19:07:27 2020, MaxMem=    33554432 cpu:         0.0
 (Enter /usr/local/gaussian09d01/g09/l401.exe)
 ExpMin= 1.61D-01 ExpMax= 5.48D+03 ExpMxC= 8.25D+02 IAcc=1 IRadAn=         1 AccDes= 0.00D+00
 Harris functional with IExCor= 1009 and IRadAn=       1 diagonalized for initial guess.
 HarFok:  IExCor= 1009 AccDes= 0.00D+00 IRadAn=         1 IDoV= 1 UseB2=F ITyADJ=14
 ICtDFT=  3500011 ScaDFX=  1.000000  1.000000  1.000000  1.000000
 FoFCou: FMM=F IPFlag=           0 FMFlag=      100000 FMFlg1=           0
         NFxFlg=           0 DoJE=T BraDBF=F KetDBF=T FulRan=T
         wScrn=  0.000000 ICntrl=     500 IOpCl=  0 I1Cent=   200000004 NGrid=           0
         NMat0=    1 NMatS0=      1 NMatT0=    0 NMatD0=    1 NMtDS0=    0 NMtDT0=    0
 Petite list used in FoFCou.
 Harris En= -532.682420352587    
 JPrj=0 DoOrth=F DoCkMO=F.
 Leave Link  401 at Thu Mar 12 19:07:28 2020, MaxMem=    33554432 cpu:         0.8
 (Enter /usr/local/gaussian09d01/g09/l502.exe)
 Closed shell SCF:
 Using DIIS extrapolation, IDIIS=  1040.
 Integral symmetry usage will be decided dynamically.
 Keep R1 ints in memory in canonical form, NReq=24030401.
 IVT=       60528 IEndB=       60528 NGot=    33554432 MDV=    10465614
 LenX=    10465614 LenY=    10451717
 Requested convergence on RMS density matrix=1.00D-08 within 128 cycles.
 Requested convergence on MAX density matrix=1.00D-06.
 Requested convergence on             energy=1.00D-06.
 No special actions if energy rises.
 FoFCou: FMM=F IPFlag=           0 FMFlag=           0 FMFlg1=           0
         NFxFlg=           0 DoJE=F BraDBF=F KetDBF=F FulRan=T
         wScrn=  0.000000 ICntrl=     600 IOpCl=  0 I1Cent=           0 NGrid=           0
         NMat0=    1 NMatS0=   6786 NMatT0=    0 NMatD0=    1 NMtDS0=    0 NMtDT0=    0
 Symmetry not used in FoFCou.
 Integral accuracy reduced to 1.0D-05 until final iterations.

 Cycle   1  Pass 0  IDiag  1:
 E= -532.591456123414    
 DIIS: error= 5.53D-02 at cycle   1 NSaved=   1.
 NSaved= 1 IEnMin= 1 EnMin= -532.591456123414     IErMin= 1 ErrMin= 5.53D-02
 ErrMax= 5.53D-02  0.00D+00 EMaxC= 1.00D-01 BMatC= 3.09D-01 BMatP= 3.09D-01
 IDIUse=3 WtCom= 4.47D-01 WtEn= 5.53D-01
 Coeff-Com:  0.100D+01
 Coeff-En:   0.100D+01
 Coeff:      0.100D+01
 Gap=     0.306 Goal=   None    Shift=    0.000
 GapD=    0.306 DampG=1.000 DampE=0.500 DampFc=0.5000 IDamp=-1.
 Damping current iteration by 5.00D-01
 RMSDP=8.37D-03 MaxDP=1.65D-01              OVMax= 1.82D-01

 Cycle   2  Pass 0  IDiag  1:
 E= -532.715980243995     Delta-E=       -0.124524120581 Rises=F Damp=T
 DIIS: error= 1.01D-02 at cycle   2 NSaved=   2.
 NSaved= 2 IEnMin= 2 EnMin= -532.715980243995     IErMin= 2 ErrMin= 1.01D-02
 ErrMax= 1.01D-02  0.00D+00 EMaxC= 1.00D-01 BMatC= 1.90D-02 BMatP= 3.09D-01
 IDIUse=3 WtCom= 8.99D-01 WtEn= 1.01D-01
 Coeff-Com:  0.352D-01 0.965D+00
 Coeff-En:   0.382D-01 0.962D+00
 Coeff:      0.356D-01 0.964D+00
 Gap=     0.358 Goal=   None    Shift=    0.000
 RMSDP=2.15D-03 MaxDP=3.38D-02 DE=-1.25D-01 OVMax= 1.10D-01

 Cycle   3  Pass 0  IDiag  1:
 E= -532.845258019053     Delta-E=       -0.129277775058 Rises=F Damp=F
 DIIS: error= 1.24D-02 at cycle   3 NSaved=   3.
 NSaved= 3 IEnMin= 3 EnMin= -532.845258019053     IErMin= 2 ErrMin= 1.01D-02
 ErrMax= 1.24D-02  0.00D+00 EMaxC= 1.00D-01 BMatC= 1.51D-02 BMatP= 1.90D-02
 IDIUse=3 WtCom= 8.76D-01 WtEn= 1.24D-01
 Coeff-Com: -0.224D-01 0.474D+00 0.549D+00
 Coeff-En:   0.000D+00 0.000D+00 0.100D+01
 Coeff:     -0.197D-01 0.415D+00 0.605D+00
 Gap=     0.339 Goal=   None    Shift=    0.000
 RMSDP=1.40D-03 MaxDP=3.64D-02 DE=-1.29D-01 OVMax= 5.53D-02

 Cycle   4  Pass 0  IDiag  1:
 E= -532.854905238086     Delta-E=       -0.009647219033 Rises=F Damp=F
 DIIS: error= 7.99D-03 at cycle   4 NSaved=   4.
 NSaved= 4 IEnMin= 4 EnMin= -532.854905238086     IErMin= 4 ErrMin= 7.99D-03
 ErrMax= 7.99D-03  0.00D+00 EMaxC= 1.00D-01 BMatC= 3.82D-03 BMatP= 1.51D-02
 IDIUse=3 WtCom= 9.20D-01 WtEn= 7.99D-02
 Coeff-Com: -0.638D-02 0.330D-01 0.340D+00 0.633D+00
 Coeff-En:   0.000D+00 0.000D+00 0.202D+00 0.798D+00
 Coeff:     -0.587D-02 0.303D-01 0.329D+00 0.646D+00
 Gap=     0.340 Goal=   None    Shift=    0.000
 RMSDP=5.36D-04 MaxDP=1.16D-02 DE=-9.65D-03 OVMax= 1.77D-02

 Cycle   5  Pass 0  IDiag  1:
 E= -532.857664409031     Delta-E=       -0.002759170944 Rises=F Damp=F
 DIIS: error= 1.02D-03 at cycle   5 NSaved=   5.
 NSaved= 5 IEnMin= 5 EnMin= -532.857664409031     IErMin= 5 ErrMin= 1.02D-03
 ErrMax= 1.02D-03  0.00D+00 EMaxC= 1.00D-01 BMatC= 1.65D-04 BMatP= 3.82D-03
 IDIUse=3 WtCom= 9.90D-01 WtEn= 1.02D-02
 Coeff-Com: -0.105D-02-0.757D-02 0.146D+00 0.336D+00 0.527D+00
 Coeff-En:   0.000D+00 0.000D+00 0.000D+00 0.000D+00 0.100D+01
 Coeff:     -0.104D-02-0.749D-02 0.145D+00 0.332D+00 0.532D+00
 Gap=     0.337 Goal=   None    Shift=    0.000
 RMSDP=1.06D-04 MaxDP=2.08D-03 DE=-2.76D-03 OVMax= 3.55D-03

 Cycle   6  Pass 0  IDiag  1:
 E= -532.857807670409     Delta-E=       -0.000143261378 Rises=F Damp=F
 DIIS: error= 2.91D-04 at cycle   6 NSaved=   6.
 NSaved= 6 IEnMin= 6 EnMin= -532.857807670409     IErMin= 6 ErrMin= 2.91D-04
 ErrMax= 2.91D-04  0.00D+00 EMaxC= 1.00D-01 BMatC= 4.68D-06 BMatP= 1.65D-04
 IDIUse=3 WtCom= 9.97D-01 WtEn= 2.91D-03
 Coeff-Com:  0.466D-03-0.388D-02 0.205D-01 0.401D-01 0.147D+00 0.795D+00
 Coeff-En:   0.000D+00 0.000D+00 0.000D+00 0.000D+00 0.000D+00 0.100D+01
 Coeff:      0.464D-03-0.387D-02 0.205D-01 0.400D-01 0.147D+00 0.796D+00
 Gap=     0.336 Goal=   None    Shift=    0.000
 RMSDP=2.72D-05 MaxDP=4.33D-04 DE=-1.43D-04 OVMax= 5.71D-04

 Cycle   7  Pass 0  IDiag  1:
 E= -532.857811791295     Delta-E=       -0.000004120887 Rises=F Damp=F
 DIIS: error= 1.08D-04 at cycle   7 NSaved=   7.
 NSaved= 7 IEnMin= 7 EnMin= -532.857811791295     IErMin= 7 ErrMin= 1.08D-04
 ErrMax= 1.08D-04  0.00D+00 EMaxC= 1.00D-01 BMatC= 8.78D-07 BMatP= 4.68D-06
 IDIUse=3 WtCom= 9.99D-01 WtEn= 1.08D-03
 Coeff-Com:  0.449D-03-0.877D-03-0.116D-01-0.336D-01-0.579D-02 0.352D+00
 Coeff-Com:  0.699D+00
 Coeff-En:   0.000D+00 0.000D+00 0.000D+00 0.000D+00 0.000D+00 0.000D+00
 Coeff-En:   0.100D+01
 Coeff:      0.448D-03-0.876D-03-0.116D-01-0.335D-01-0.578D-02 0.352D+00
 Coeff:      0.700D+00
 Gap=     0.336 Goal=   None    Shift=    0.000
 RMSDP=1.30D-05 MaxDP=1.97D-04 DE=-4.12D-06 OVMax= 2.92D-04

 Cycle   8  Pass 0  IDiag  1:
 E= -532.857812641048     Delta-E=       -0.000000849753 Rises=F Damp=F
 DIIS: error= 3.52D-05 at cycle   8 NSaved=   8.
 NSaved= 8 IEnMin= 8 EnMin= -532.857812641048     IErMin= 8 ErrMin= 3.52D-05
 ErrMax= 3.52D-05  0.00D+00 EMaxC= 1.00D-01 BMatC= 1.24D-07 BMatP= 8.78D-07
 IDIUse=1 WtCom= 1.00D+00 WtEn= 0.00D+00
 Coeff-Com:  0.164D-03 0.243D-04-0.730D-02-0.201D-01-0.189D-01 0.560D-01
 Coeff-Com:  0.326D+00 0.664D+00
 Coeff:      0.164D-03 0.243D-04-0.730D-02-0.201D-01-0.189D-01 0.560D-01
 Coeff:      0.326D+00 0.664D+00
 Gap=     0.336 Goal=   None    Shift=    0.000
 RMSDP=4.64D-06 MaxDP=8.52D-05 DE=-8.50D-07 OVMax= 1.36D-04

 Initial convergence to 1.0D-05 achieved.  Increase integral accuracy.
 Cycle   9  Pass 1  IDiag  1:
 E= -532.857995781907     Delta-E=       -0.000183140859 Rises=F Damp=F
 DIIS: error= 1.35D-04 at cycle   1 NSaved=   1.
 NSaved= 1 IEnMin= 1 EnMin= -532.857995781907     IErMin= 1 ErrMin= 1.35D-04
 ErrMax= 1.35D-04  0.00D+00 EMaxC= 1.00D-01 BMatC= 1.82D-06 BMatP= 1.82D-06
 IDIUse=3 WtCom= 9.99D-01 WtEn= 1.35D-03
 Coeff-Com:  0.100D+01
 Coeff-En:   0.100D+01
 Coeff:      0.100D+01
 Gap=     0.335 Goal=   None    Shift=    0.000
 RMSDP=4.64D-06 MaxDP=8.52D-05 DE=-1.83D-04 OVMax= 1.90D-04

 Cycle  10  Pass 1  IDiag  1:
 E= -532.857997357898     Delta-E=       -0.000001575991 Rises=F Damp=F
 DIIS: error= 7.18D-05 at cycle   2 NSaved=   2.
 NSaved= 2 IEnMin= 2 EnMin= -532.857997357898     IErMin= 2 ErrMin= 7.18D-05
 ErrMax= 7.18D-05  0.00D+00 EMaxC= 1.00D-01 BMatC= 4.43D-07 BMatP= 1.82D-06
 IDIUse=1 WtCom= 1.00D+00 WtEn= 0.00D+00
 Coeff-Com:  0.264D+00 0.736D+00
 Coeff:      0.264D+00 0.736D+00
 Gap=     0.335 Goal=   None    Shift=    0.000
 RMSDP=7.80D-06 MaxDP=1.66D-04 DE=-1.58D-06 OVMax= 1.95D-04

 Cycle  11  Pass 1  IDiag  1:
 E= -532.857997646942     Delta-E=       -0.000000289044 Rises=F Damp=F
 DIIS: error= 3.50D-05 at cycle   3 NSaved=   3.
 NSaved= 3 IEnMin= 3 EnMin= -532.857997646942     IErMin= 3 ErrMin= 3.50D-05
 ErrMax= 3.50D-05  0.00D+00 EMaxC= 1.00D-01 BMatC= 1.78D-07 BMatP= 4.43D-07
 IDIUse=1 WtCom= 1.00D+00 WtEn= 0.00D+00
 Coeff-Com: -0.247D-01 0.377D+00 0.648D+00
 Coeff:     -0.247D-01 0.377D+00 0.648D+00
 Gap=     0.335 Goal=   None    Shift=    0.000
 RMSDP=3.79D-06 MaxDP=9.30D-05 DE=-2.89D-07 OVMax= 1.31D-04

 Cycle  12  Pass 1  IDiag  1:
 E= -532.857997789976     Delta-E=       -0.000000143034 Rises=F Damp=F
 DIIS: error= 1.03D-05 at cycle   4 NSaved=   4.
 NSaved= 4 IEnMin= 4 EnMin= -532.857997789976     IErMin= 4 ErrMin= 1.03D-05
 ErrMax= 1.03D-05  0.00D+00 EMaxC= 1.00D-01 BMatC= 1.62D-08 BMatP= 1.78D-07
 IDIUse=1 WtCom= 1.00D+00 WtEn= 0.00D+00
 Coeff-Com: -0.311D-01 0.159D+00 0.350D+00 0.522D+00
 Coeff:     -0.311D-01 0.159D+00 0.350D+00 0.522D+00
 Gap=     0.335 Goal=   None    Shift=    0.000
 RMSDP=9.50D-07 MaxDP=2.21D-05 DE=-1.43D-07 OVMax= 3.77D-05

 Cycle  13  Pass 1  IDiag  1:
 E= -532.857997804184     Delta-E=       -0.000000014208 Rises=F Damp=F
 DIIS: error= 2.35D-06 at cycle   5 NSaved=   5.
 NSaved= 5 IEnMin= 5 EnMin= -532.857997804184     IErMin= 5 ErrMin= 2.35D-06
 ErrMax= 2.35D-06  0.00D+00 EMaxC= 1.00D-01 BMatC= 3.13D-10 BMatP= 1.62D-08
 IDIUse=1 WtCom= 1.00D+00 WtEn= 0.00D+00
 Coeff-Com: -0.656D-02 0.129D-01 0.425D-01 0.125D+00 0.827D+00
 Coeff:     -0.656D-02 0.129D-01 0.425D-01 0.125D+00 0.827D+00
 Gap=     0.335 Goal=   None    Shift=    0.000
 RMSDP=2.87D-07 MaxDP=5.14D-06 DE=-1.42D-08 OVMax= 6.63D-06

 Cycle  14  Pass 1  IDiag  1:
 E= -532.857997804402     Delta-E=       -0.000000000218 Rises=F Damp=F
 DIIS: error= 1.45D-06 at cycle   6 NSaved=   6.
 NSaved= 6 IEnMin= 6 EnMin= -532.857997804402     IErMin= 6 ErrMin= 1.45D-06
 ErrMax= 1.45D-06  0.00D+00 EMaxC= 1.00D-01 BMatC= 1.84D-10 BMatP= 3.13D-10
 IDIUse=1 WtCom= 1.00D+00 WtEn= 0.00D+00
 Coeff-Com:  0.114D-02-0.158D-01-0.275D-01-0.496D-02 0.480D+00 0.567D+00
 Coeff:      0.114D-02-0.158D-01-0.275D-01-0.496D-02 0.480D+00 0.567D+00
 Gap=     0.335 Goal=   None    Shift=    0.000
 RMSDP=1.09D-07 MaxDP=2.84D-06 DE=-2.18D-10 OVMax= 5.19D-06

 Cycle  15  Pass 1  IDiag  1:
 E= -532.857997804545     Delta-E=       -0.000000000143 Rises=F Damp=F
 DIIS: error= 4.00D-07 at cycle   7 NSaved=   7.
 NSaved= 7 IEnMin= 7 EnMin= -532.857997804545     IErMin= 7 ErrMin= 4.00D-07
 ErrMax= 4.00D-07  0.00D+00 EMaxC= 1.00D-01 BMatC= 8.55D-12 BMatP= 1.84D-10
 IDIUse=1 WtCom= 1.00D+00 WtEn= 0.00D+00
 Coeff-Com:  0.860D-03-0.689D-02-0.138D-01-0.988D-02 0.117D+00 0.233D+00
 Coeff-Com:  0.679D+00
 Coeff:      0.860D-03-0.689D-02-0.138D-01-0.988D-02 0.117D+00 0.233D+00
 Coeff:      0.679D+00
 Gap=     0.335 Goal=   None    Shift=    0.000
 RMSDP=4.54D-08 MaxDP=1.05D-06 DE=-1.43D-10 OVMax= 1.00D-06

 Cycle  16  Pass 1  IDiag  1:
 E= -532.857997804559     Delta-E=       -0.000000000014 Rises=F Damp=F
 DIIS: error= 1.08D-07 at cycle   8 NSaved=   8.
 NSaved= 8 IEnMin= 8 EnMin= -532.857997804559     IErMin= 8 ErrMin= 1.08D-07
 ErrMax= 1.08D-07  0.00D+00 EMaxC= 1.00D-01 BMatC= 2.08D-12 BMatP= 8.55D-12
 IDIUse=1 WtCom= 1.00D+00 WtEn= 0.00D+00
 Coeff-Com:  0.234D-03-0.472D-03-0.197D-02-0.425D-02-0.418D-01 0.152D-01
 Coeff-Com:  0.373D+00 0.660D+00
 Coeff:      0.234D-03-0.472D-03-0.197D-02-0.425D-02-0.418D-01 0.152D-01
 Coeff:      0.373D+00 0.660D+00
 Gap=     0.335 Goal=   None    Shift=    0.000
 RMSDP=1.52D-08 MaxDP=4.09D-07 DE=-1.39D-11 OVMax= 4.85D-07

 Cycle  17  Pass 1  IDiag  1:
 E= -532.857997804570     Delta-E=       -0.000000000011 Rises=F Damp=F
 DIIS: error= 3.06D-08 at cycle   9 NSaved=   9.
 NSaved= 9 IEnMin= 9 EnMin= -532.857997804570     IErMin= 9 ErrMin= 3.06D-08
 ErrMax= 3.06D-08  0.00D+00 EMaxC= 1.00D-01 BMatC= 5.67D-14 BMatP= 2.08D-12
 IDIUse=1 WtCom= 1.00D+00 WtEn= 0.00D+00
 Coeff-Com: -0.468D-04 0.474D-03 0.953D-03 0.503D-03-0.126D-01-0.133D-01
 Coeff-Com: -0.393D-01 0.681D-01 0.995D+00
 Coeff:     -0.468D-04 0.474D-03 0.953D-03 0.503D-03-0.126D-01-0.133D-01
 Coeff:     -0.393D-01 0.681D-01 0.995D+00
 Gap=     0.335 Goal=   None    Shift=    0.000
 RMSDP=5.43D-09 MaxDP=1.02D-07 DE=-1.14D-11 OVMax= 2.43D-07

 SCF Done:  E(RM062X) =  -532.857997805     A.U. after   17 cycles
            NFock= 17  Conv=0.54D-08     -V/T= 2.0061
 KE= 5.296255373665D+02 PE=-2.401277323832D+03 EE= 7.542023086250D+02
 Leave Link  502 at Thu Mar 12 19:08:22 2020, MaxMem=    33554432 cpu:        54.2
 (Enter /usr/local/gaussian09d01/g09/l601.exe)
 Copying SCF densities to generalized density rwf, IOpCl= 0 IROHF=0.

 **********************************************************************

            Population analysis using the SCF density.

 **********************************************************************

 Orbital symmetries:
       Occupied  (A) (A) (A) (A) (A) (A) (A) (A) (A) (A) (A) (A)
                 (A) (A) (A) (A) (A) (A) (A) (A) (A) (A) (A) (A)
                 (A) (A) (A) (A) (A) (A) (A) (A) (A) (A) (A) (A)
                 (A) (A) (A) (A)
       Virtual   (A) (A) (A) (A) (A) (A) (A) (A) (A) (A) (A) (A)
                 (A) (A) (A) (A) (A) (A) (A) (A) (A) (A) (A) (A)
                 (A) (A) (A) (A) (A) (A) (A) (A) (A) (A) (A) (A)
                 (A) (A) (A) (A) (A) (A) (A) (A) (A) (A) (A) (A)
                 (A) (A) (A) (A) (A) (A) (A) (A) (A) (A) (A) (A)
                 (A) (A) (A) (A) (A) (A) (A) (A) (A) (A) (A) (A)
                 (A) (A) (A) (A)
 The electronic state is 1-A.
 Alpha  occ. eigenvalues --  -19.87781 -19.83885 -19.80325 -15.00047 -14.92848
 Alpha  occ. eigenvalues --  -10.88764 -10.85980 -10.77724 -10.75242 -10.63009
 Alpha  occ. eigenvalues --   -1.42145  -1.40073  -1.31055  -1.23558  -1.17955
 Alpha  occ. eigenvalues --   -1.05659  -0.96243  -0.92333  -0.89924  -0.85763
 Alpha  occ. eigenvalues --   -0.80059  -0.78646  -0.76131  -0.73493  -0.73000
 Alpha  occ. eigenvalues --   -0.72130  -0.69436  -0.68450  -0.65767  -0.64371
 Alpha  occ. eigenvalues --   -0.62947  -0.61412  -0.60458  -0.57022  -0.56802
 Alpha  occ. eigenvalues --   -0.55867  -0.55343  -0.53848  -0.51384  -0.49065
 Alpha virt. eigenvalues --   -0.15519  -0.15379  -0.12019  -0.06307  -0.02385
 Alpha virt. eigenvalues --   -0.00436   0.01191   0.01958   0.04877   0.05302
 Alpha virt. eigenvalues --    0.06917   0.07231   0.07943   0.10970   0.11254
 Alpha virt. eigenvalues --    0.11367   0.12430   0.13228   0.16329   0.18953
 Alpha virt. eigenvalues --    0.21162   0.24494   0.28412   0.39133   0.42419
 Alpha virt. eigenvalues --    0.43649   0.46005   0.46495   0.48179   0.48336
 Alpha virt. eigenvalues --    0.50115   0.52086   0.52217   0.55709   0.58337
 Alpha virt. eigenvalues --    0.58676   0.59011   0.61897   0.64535   0.64899
 Alpha virt. eigenvalues --    0.67979   0.68810   0.71249   0.75104   0.75514
 Alpha virt. eigenvalues --    0.77250   0.78980   0.81094   0.83871   0.84387
 Alpha virt. eigenvalues --    0.86342   0.87518   0.88016   0.88342   0.91533
 Alpha virt. eigenvalues --    0.92353   0.92882   0.94648   0.95256   0.96780
 Alpha virt. eigenvalues --    1.02458   1.04146   1.08962   1.10753   1.12516
 Alpha virt. eigenvalues --    1.14298   1.19247   1.27594   1.29022   1.34093
 Alpha virt. eigenvalues --    1.41440   1.53627   1.63122   1.75093   1.76769
 Alpha virt. eigenvalues --    1.86757
          Condensed to atoms (all electrons):
               1          2          3          4          5          6
     1  C    5.189141   0.375446   0.371743   0.000000   0.370262   0.370794
     2  H    0.375446   0.469618  -0.017944   0.000000  -0.019843  -0.020309
     3  H    0.371743  -0.017944   0.520538   0.000000  -0.029502  -0.030115
     4  H    0.000000   0.000000   0.000000   0.293817   0.000000   0.000000
     5  H    0.370262  -0.019843  -0.029502   0.000000   0.538054  -0.032245
     6  H    0.370794  -0.020309  -0.030115   0.000000  -0.032245   0.545745
     7  C    0.000000   0.000000  -0.000001  -0.005730   0.000000   0.000000
     8  C   -0.000005   0.000001   0.000083   0.000143  -0.000011  -0.000007
     9  C    0.000265   0.000037   0.001486   0.000047  -0.000153  -0.000130
    10  N    0.000000   0.000000  -0.000001   0.000026   0.000000   0.000000
    11  O   -0.001315   0.000015   0.003297   0.000357   0.000043   0.000016
    12  O   -0.005231   0.000175  -0.001624   0.000000  -0.000761  -0.000632
    13  C    0.000000   0.000000   0.000000  -0.015597   0.000000   0.000000
    14  H    0.000000   0.000000   0.000000   0.000004   0.000000   0.000000
    15  H    0.000000   0.000000   0.000000   0.003590   0.000000   0.000000
    16  H    0.000001   0.000000  -0.000002   0.000004   0.000000   0.000000
    17  H    0.000000   0.000000   0.000000  -0.000038   0.000000   0.000000
    18  H   -0.000001   0.000000   0.000000   0.000000   0.000000   0.000000
    19  H    0.026893  -0.000937   0.002070   0.000000   0.005176   0.004700
    20  N    0.000000   0.000000   0.000000   0.005707   0.000000   0.000000
    21  O    0.000000   0.000000   0.000000   0.256550   0.000000   0.000000
    22  H    0.000000   0.000000   0.000000  -0.000001   0.000000   0.000000
    23  H    0.000000   0.000000   0.000000   0.000052   0.000000   0.000000
               7          8          9         10         11         12
     1  C    0.000000  -0.000005   0.000265   0.000000  -0.001315  -0.005231
     2  H    0.000000   0.000001   0.000037   0.000000   0.000015   0.000175
     3  H   -0.000001   0.000083   0.001486  -0.000001   0.003297  -0.001624
     4  H   -0.005730   0.000143   0.000047   0.000026   0.000357   0.000000
     5  H    0.000000  -0.000011  -0.000153   0.000000   0.000043  -0.000761
     6  H    0.000000  -0.000007  -0.000130   0.000000   0.000016  -0.000632
     7  C    5.424142   0.218609  -0.047956  -0.075667   0.007929   0.005355
     8  C    0.218609   5.569648   0.151699   0.192847  -0.124253  -0.148336
     9  C   -0.047956   0.151699   4.753502  -0.049255   0.495913   0.194718
    10  N   -0.075667   0.192847  -0.049255   7.095272   0.002195   0.001807
    11  O    0.007929  -0.124253   0.495913   0.002195   8.123524  -0.108495
    12  O    0.005355  -0.148336   0.194718   0.001807  -0.108495   8.418870
    13  C    0.266359  -0.016540  -0.007782  -0.003428   0.010480  -0.000526
    14  H    0.376748  -0.027745   0.005613  -0.001450   0.000414  -0.000026
    15  H    0.367890  -0.027655  -0.002038   0.003829   0.004728   0.000132
    16  H   -0.043691   0.385462  -0.026920  -0.035959   0.001065   0.000890
    17  H   -0.008302  -0.010844  -0.000705   0.091900   0.000202  -0.000063
    18  H    0.004869  -0.034203  -0.007489   0.320606   0.000225   0.013242
    19  H   -0.000158   0.005441  -0.018734  -0.000118  -0.000621   0.237045
    20  N   -0.099978   0.003007   0.000245  -0.073789  -0.003466   0.000049
    21  O   -0.061733   0.002637  -0.000507  -0.000153  -0.001519  -0.000001
    22  H   -0.000870  -0.029074   0.004137   0.321948  -0.000080  -0.000004
    23  H    0.002009  -0.000073  -0.000055   0.001021   0.000007   0.000001
              13         14         15         16         17         18
     1  C    0.000000   0.000000   0.000000   0.000001   0.000000  -0.000001
     2  H    0.000000   0.000000   0.000000   0.000000   0.000000   0.000000
     3  H    0.000000   0.000000   0.000000  -0.000002   0.000000   0.000000
     4  H   -0.015597   0.000004   0.003590   0.000004  -0.000038   0.000000
     5  H    0.000000   0.000000   0.000000   0.000000   0.000000   0.000000
     6  H    0.000000   0.000000   0.000000   0.000000   0.000000   0.000000
     7  C    0.266359   0.376748   0.367890  -0.043691  -0.008302   0.004869
     8  C   -0.016540  -0.027745  -0.027655   0.385462  -0.010844  -0.034203
     9  C   -0.007782   0.005613  -0.002038  -0.026920  -0.000705  -0.007489
    10  N   -0.003428  -0.001450   0.003829  -0.035959   0.091900   0.320606
    11  O    0.010480   0.000414   0.004728   0.001065   0.000202   0.000225
    12  O   -0.000526  -0.000026   0.000132   0.000890  -0.000063   0.013242
    13  C    4.666826  -0.035969  -0.032540   0.004317  -0.026162   0.000161
    14  H   -0.035969   0.443543  -0.016367  -0.003113  -0.000353  -0.000055
    15  H   -0.032540  -0.016367   0.466600  -0.000691   0.000327  -0.000101
    16  H    0.004317  -0.003113  -0.000691   0.461827   0.000999   0.000999
    17  H   -0.026162  -0.000353   0.000327   0.000999   0.266825  -0.000429
    18  H    0.000161  -0.000055  -0.000101   0.000999  -0.000429   0.337680
    19  H   -0.000012   0.000002  -0.000002  -0.000247  -0.000021  -0.000263
    20  N    0.285601  -0.001692   0.004393  -0.000294   0.248081   0.000288
    21  O    0.317885   0.001054  -0.002852  -0.000068   0.001195   0.000002
    22  H   -0.000297   0.001621  -0.000073  -0.003755  -0.001534  -0.020869
    23  H   -0.014683  -0.000066  -0.000046   0.000005   0.000482  -0.000007
              19         20         21         22         23
     1  C    0.026893   0.000000   0.000000   0.000000   0.000000
     2  H   -0.000937   0.000000   0.000000   0.000000   0.000000
     3  H    0.002070   0.000000   0.000000   0.000000   0.000000
     4  H    0.000000   0.005707   0.256550  -0.000001   0.000052
     5  H    0.005176   0.000000   0.000000   0.000000   0.000000
     6  H    0.004700   0.000000   0.000000   0.000000   0.000000
     7  C   -0.000158  -0.099978  -0.061733  -0.000870   0.002009
     8  C    0.005441   0.003007   0.002637  -0.029074  -0.000073
     9  C   -0.018734   0.000245  -0.000507   0.004137  -0.000055
    10  N   -0.000118  -0.073789  -0.000153   0.321948   0.001021
    11  O   -0.000621  -0.003466  -0.001519  -0.000080   0.000007
    12  O    0.237045   0.000049  -0.000001  -0.000004   0.000001
    13  C   -0.000012   0.285601   0.317885  -0.000297  -0.014683
    14  H    0.000002  -0.001692   0.001054   0.001621  -0.000066
    15  H   -0.000002   0.004393  -0.002852  -0.000073  -0.000046
    16  H   -0.000247  -0.000294  -0.000068  -0.003755   0.000005
    17  H   -0.000021   0.248081   0.001195  -0.001534   0.000482
    18  H   -0.000263   0.000288   0.000002  -0.020869  -0.000007
    19  H    0.275317   0.000011   0.000000   0.000017   0.000000
    20  N    0.000011   7.157406  -0.110118   0.000927   0.248994
    21  O    0.000000  -0.110118   8.149075   0.000002  -0.001161
    22  H    0.000017   0.000927   0.000002   0.370014  -0.000014
    23  H    0.000000   0.248994  -0.001161  -0.000014   0.336275
 Mulliken charges:
               1
     1  C   -0.697994
     2  H    0.213740
     3  H    0.179970
     4  H    0.461068
     5  H    0.168980
     6  H    0.162183
     7  C   -0.329823
     8  C   -0.110831
     9  C    0.554063
    10  N   -0.791631
    11  O   -0.410662
    12  O   -0.606584
    13  C    0.601907
    14  H    0.257838
    15  H    0.230877
    16  H    0.259171
    17  H    0.438437
    18  H    0.385344
    19  H    0.464441
    20  N   -0.665372
    21  O   -0.550287
    22  H    0.357907
    23  H    0.427258
 Sum of Mulliken charges =   1.00000
 Mulliken charges with hydrogens summed into heavy atoms:
               1
     1  C    0.026879
     7  C    0.158892
     8  C    0.148340
     9  C    0.554063
    10  N   -0.048380
    11  O   -0.410662
    12  O   -0.142144
    13  C    0.601907
    20  N    0.200323
    21  O   -0.089218
 Electronic spatial extent (au):  <R**2>=           2000.7543
 Charge=              1.0000 electrons
 Dipole moment (field-independent basis, Debye):
    X=              4.8130    Y=              1.6864    Z=              0.4336  Tot=              5.1183
 Quadrupole moment (field-independent basis, Debye-Ang):
   XX=            -33.5857   YY=            -47.8304   ZZ=            -45.4161
   XY=             -1.6393   XZ=             -1.9168   YZ=             -0.5405
 Traceless Quadrupole moment (field-independent basis, Debye-Ang):
   XX=              8.6917   YY=             -5.5530   ZZ=             -3.1387
   XY=             -1.6393   XZ=             -1.9168   YZ=             -0.5405
 Octapole moment (field-independent basis, Debye-Ang**2):
  XXX=            -21.4735  YYY=             16.1176  ZZZ=             20.3045  XYY=             24.4258
  XXY=            -19.1101  XXZ=              2.5242  XZZ=             29.8560  YZZ=            -11.6319
  YYZ=             -2.8903  XYZ=              2.7907
 Hexadecapole moment (field-independent basis, Debye-Ang**3):
 XXXX=          -1441.8933 YYYY=           -432.6068 ZZZZ=           -176.2859 XXXY=             22.3406
 XXXZ=            -24.2857 YYYX=            -15.3371 YYYZ=             36.0804 ZZZX=             47.9558
 ZZZY=            -21.8852 XXYY=           -329.4440 XXZZ=           -276.6084 YYZZ=           -101.9613
 XXYZ=              1.6222 YYXZ=            -19.4935 ZZXY=            -43.7917
 N-N= 5.845914800362D+02 E-N=-2.401277323369D+03  KE= 5.296255373665D+02
 No NMR shielding tensors so no spin-rotation constants.
 Leave Link  601 at Thu Mar 12 19:08:22 2020, MaxMem=    33554432 cpu:         0.1
 (Enter /usr/local/gaussian09d01/g09/l9999.exe)
 1\1\GINC-KARURA\SP\RM062X\6-31G\C5H13N2O3(1+)\RTAKE\12-Mar-2020\0\\#p 
 M062X/6-31G\\chk calc\\1,1\C,0,3.824482709,-1.14219544,1.17225369\H,0,
 4.799113079,-1.62961423,1.173808707\H,0,3.053614027,-1.916312598,1.160
 804944\H,0,-2.540416453,-2.844981592,-1.014302773\H,0,3.75960642,-0.53
 291794,2.07824618\H,0,3.765323683,-0.52154146,0.273951194\C,0,-2.40154
 2122,-0.705499021,0.492562549\C,0,-1.33365594,0.193207044,1.141270536\
 C,0,0.021967089,-0.47033751,0.950186539\N,0,-1.303304814,1.529148773,0
 .515945207\O,0,0.155929117,-1.611462803,0.51692019\O,0,1.024922388,0.3
 53392554,1.298656\C,0,-2.121889445,-0.918337302,-0.967112723\H,0,-3.39
 229932,-0.247402335,0.596496855\H,0,-2.419176945,-1.669900059,1.004436
 439\H,0,-1.526304416,0.239474424,2.221387894\H,0,-1.503902114,0.960750
 702,-1.170400229\H,0,-0.410560182,1.997532273,0.666150752\H,0,1.924402
 159,-0.039925506,1.230818645\N,0,-1.700457396,0.069239192,-1.694919761
 \O,0,-2.336854815,-2.071648312,-1.575178364\H,0,-2.071900591,2.1285565
 43,0.807834339\H,0,-1.43998927,-0.104010743,-3.081360329\\Version=ES64
 L-G09RevD.01\State=1-A\HF=-532.8579978\RMSD=5.431e-09\Dipole=-1.820417
 3,0.664253,-0.5475078\Quadrupole=5.5946548,-4.0265588,-1.5680961,1.833
 2651,2.7278396,0.1190288\PG=C01 [X(C5H13N2O3)]\\@


 AN OPTIMIST IS A GUY
 THAT HAS NEVER HAD
 MUCH EXPERIENCE
   (CERTAIN MAXIMS OF ARCHY  -- DON MARQUIS)
 Job cpu time:       0 days  0 hours  0 minutes 55.5 seconds.
 File lengths (MBytes):  RWF=      7 Int=      0 D2E=      0 Chk=      2 Scr=      1
 Normal termination of Gaussian 09 at Thu Mar 12 19:08:22 2020.
