 Entering Gaussian System, Link 0=g09
 Input=./n20_h23_18.gjf
 Output=./n20_h23_18.log
 Initial command:
 /usr/local/gaussian09d01/g09/l1.exe "/scr/Gau-20814.inp" -scrdir="/scr/"
 Entering Link 1 = /usr/local/gaussian09d01/g09/l1.exe PID=     20815.
  
 Copyright (c) 1988,1990,1992,1993,1995,1998,2003,2009,2013,
            Gaussian, Inc.  All Rights Reserved.
  
 This is part of the Gaussian(R) 09 program.  It is based on
 the Gaussian(R) 03 system (copyright 2003, Gaussian, Inc.),
 the Gaussian(R) 98 system (copyright 1998, Gaussian, Inc.),
 the Gaussian(R) 94 system (copyright 1995, Gaussian, Inc.),
 the Gaussian 92(TM) system (copyright 1992, Gaussian, Inc.),
 the Gaussian 90(TM) system (copyright 1990, Gaussian, Inc.),
 the Gaussian 88(TM) system (copyright 1988, Gaussian, Inc.),
 the Gaussian 86(TM) system (copyright 1986, Carnegie Mellon
 University), and the Gaussian 82(TM) system (copyright 1983,
 Carnegie Mellon University). Gaussian is a federally registered
 trademark of Gaussian, Inc.
  
 This software contains proprietary and confidential information,
 including trade secrets, belonging to Gaussian, Inc.
  
 This software is provided under written license and may be
 used, copied, transmitted, or stored only in accord with that
 written license.
  
 The following legend is applicable only to US Government
 contracts under FAR:
  
                    RESTRICTED RIGHTS LEGEND
  
 Use, reproduction and disclosure by the US Government is
 subject to restrictions as set forth in subparagraphs (a)
 and (c) of the Commercial Computer Software - Restricted
 Rights clause in FAR 52.227-19.
  
 Gaussian, Inc.
 340 Quinnipiac St., Bldg. 40, Wallingford CT 06492
  
  
 ---------------------------------------------------------------
 Warning -- This program may not be used in any manner that
 competes with the business of Gaussian, Inc. or will provide
 assistance to any competitor of Gaussian, Inc.  The licensee
 of this program is prohibited from giving any competitor of
 Gaussian, Inc. access to this program.  By using this program,
 the user acknowledges that Gaussian, Inc. is engaged in the
 business of creating and licensing software in the field of
 computational chemistry and represents and warrants to the
 licensee that it is not a competitor of Gaussian, Inc. and that
 it will not use this program in any manner prohibited above.
 ---------------------------------------------------------------
  

 Cite this work as:
 Gaussian 09, Revision D.01,
 M. J. Frisch, G. W. Trucks, H. B. Schlegel, G. E. Scuseria, 
 M. A. Robb, J. R. Cheeseman, G. Scalmani, V. Barone, B. Mennucci, 
 G. A. Petersson, H. Nakatsuji, M. Caricato, X. Li, H. P. Hratchian, 
 A. F. Izmaylov, J. Bloino, G. Zheng, J. L. Sonnenberg, M. Hada, 
 M. Ehara, K. Toyota, R. Fukuda, J. Hasegawa, M. Ishida, T. Nakajima, 
 Y. Honda, O. Kitao, H. Nakai, T. Vreven, J. A. Montgomery, Jr., 
 J. E. Peralta, F. Ogliaro, M. Bearpark, J. J. Heyd, E. Brothers, 
 K. N. Kudin, V. N. Staroverov, T. Keith, R. Kobayashi, J. Normand, 
 K. Raghavachari, A. Rendell, J. C. Burant, S. S. Iyengar, J. Tomasi, 
 M. Cossi, N. Rega, J. M. Millam, M. Klene, J. E. Knox, J. B. Cross, 
 V. Bakken, C. Adamo, J. Jaramillo, R. Gomperts, R. E. Stratmann, 
 O. Yazyev, A. J. Austin, R. Cammi, C. Pomelli, J. W. Ochterski, 
 R. L. Martin, K. Morokuma, V. G. Zakrzewski, G. A. Voth, 
 P. Salvador, J. J. Dannenberg, S. Dapprich, A. D. Daniels, 
 O. Farkas, J. B. Foresman, J. V. Ortiz, J. Cioslowski, 
 and D. J. Fox, Gaussian, Inc., Wallingford CT, 2013.
 
 ******************************************
 Gaussian 09:  ES64L-G09RevD.01 24-Apr-2013
                12-Mar-2020 
 ******************************************
 --------------
 #p M062X/6-31G
 --------------
 1/38=1/1;
 2/12=2,17=6,18=5,40=1/2;
 3/5=1,6=6,11=2,16=1,25=1,30=1,74=-55/1,2,3;
 4//1;
 5/5=2,38=5/2;
 6/7=2,8=2,9=2,10=2,28=1/1;
 99/5=1,9=1/99;
 Leave Link    1 at Thu Mar 12 19:11:09 2020, MaxMem=           0 cpu:         0.0
 (Enter /usr/local/gaussian09d01/g09/l101.exe)
 --------
 chk calc
 --------
 Symbolic Z-matrix:
 Charge =  1 Multiplicity = 1
 C                     3.82448  -1.1422    1.17225 
 H                     4.79911  -1.62961   1.17381 
 H                     3.05361  -1.91631   1.1608 
 H                    -2.54042  -2.84498  -1.0143 
 H                     3.75961  -0.53292   2.07825 
 H                     3.76532  -0.52154   0.27395 
 C                    -2.40154  -0.7055    0.49256 
 C                    -1.33366   0.19321   1.14127 
 C                     0.02197  -0.47034   0.95019 
 N                    -1.3033    1.52915   0.51595 
 O                     0.15593  -1.61146   0.51692 
 O                     1.02492   0.35339   1.29866 
 C                    -2.12189  -0.91834  -0.96711 
 H                    -3.3923   -0.2474    0.5965 
 H                    -2.41918  -1.6699    1.00444 
 H                    -1.5263    0.23947   2.22139 
 H                    -1.5039    0.96075  -1.1704 
 H                    -0.41056   1.99753   0.66615 
 H                     1.9244   -0.03993   1.23082 
 N                    -1.70046   0.06924  -1.69492 
 O                    -2.33685  -2.07165  -1.57518 
 H                    -2.0719    2.12856   0.80783 
 H                    -1.36557  -0.15351  -3.47749 
 
 NAtoms=     23 NQM=       23 NQMF=       0 NMMI=      0 NMMIF=      0
                NMic=       0 NMicF=      0.
                    Isotopes and Nuclear Properties:
 (Nuclear quadrupole moments (NQMom) in fm**2, nuclear magnetic moments (NMagM)
  in nuclear magnetons)

  Atom         1           2           3           4           5           6           7           8           9          10
 IAtWgt=          12           1           1           1           1           1          12          12          12          14
 AtmWgt=  12.0000000   1.0078250   1.0078250   1.0078250   1.0078250   1.0078250  12.0000000  12.0000000  12.0000000  14.0030740
 NucSpn=           0           1           1           1           1           1           0           0           0           2
 AtZEff=   0.0000000   0.0000000   0.0000000   0.0000000   0.0000000   0.0000000   0.0000000   0.0000000   0.0000000   0.0000000
 NQMom=    0.0000000   0.0000000   0.0000000   0.0000000   0.0000000   0.0000000   0.0000000   0.0000000   0.0000000   2.0440000
 NMagM=    0.0000000   2.7928460   2.7928460   2.7928460   2.7928460   2.7928460   0.0000000   0.0000000   0.0000000   0.4037610
 AtZNuc=   6.0000000   1.0000000   1.0000000   1.0000000   1.0000000   1.0000000   6.0000000   6.0000000   6.0000000   7.0000000

  Atom        11          12          13          14          15          16          17          18          19          20
 IAtWgt=          16          16          12           1           1           1           1           1           1          14
 AtmWgt=  15.9949146  15.9949146  12.0000000   1.0078250   1.0078250   1.0078250   1.0078250   1.0078250   1.0078250  14.0030740
 NucSpn=           0           0           0           1           1           1           1           1           1           2
 AtZEff=   0.0000000   0.0000000   0.0000000   0.0000000   0.0000000   0.0000000   0.0000000   0.0000000   0.0000000   0.0000000
 NQMom=    0.0000000   0.0000000   0.0000000   0.0000000   0.0000000   0.0000000   0.0000000   0.0000000   0.0000000   2.0440000
 NMagM=    0.0000000   0.0000000   0.0000000   2.7928460   2.7928460   2.7928460   2.7928460   2.7928460   2.7928460   0.4037610
 AtZNuc=   8.0000000   8.0000000   6.0000000   1.0000000   1.0000000   1.0000000   1.0000000   1.0000000   1.0000000   7.0000000

  Atom        21          22          23
 IAtWgt=          16           1           1
 AtmWgt=  15.9949146   1.0078250   1.0078250
 NucSpn=           0           1           1
 AtZEff=   0.0000000   0.0000000   0.0000000
 NQMom=    0.0000000   0.0000000   0.0000000
 NMagM=    0.0000000   2.7928460   2.7928460
 AtZNuc=   8.0000000   1.0000000   1.0000000
 Leave Link  101 at Thu Mar 12 19:11:09 2020, MaxMem=    33554432 cpu:         0.0
 (Enter /usr/local/gaussian09d01/g09/l202.exe)
                          Input orientation:                          
 ---------------------------------------------------------------------
 Center     Atomic      Atomic             Coordinates (Angstroms)
 Number     Number       Type             X           Y           Z
 ---------------------------------------------------------------------
      1          6           0        3.824483   -1.142195    1.172254
      2          1           0        4.799113   -1.629614    1.173809
      3          1           0        3.053614   -1.916313    1.160805
      4          1           0       -2.540416   -2.844982   -1.014303
      5          1           0        3.759606   -0.532918    2.078246
      6          1           0        3.765324   -0.521541    0.273951
      7          6           0       -2.401542   -0.705499    0.492563
      8          6           0       -1.333656    0.193207    1.141271
      9          6           0        0.021967   -0.470338    0.950187
     10          7           0       -1.303305    1.529149    0.515945
     11          8           0        0.155929   -1.611463    0.516920
     12          8           0        1.024922    0.353393    1.298656
     13          6           0       -2.121889   -0.918337   -0.967113
     14          1           0       -3.392299   -0.247402    0.596497
     15          1           0       -2.419177   -1.669900    1.004436
     16          1           0       -1.526304    0.239474    2.221388
     17          1           0       -1.503902    0.960751   -1.170400
     18          1           0       -0.410560    1.997532    0.666151
     19          1           0        1.924402   -0.039926    1.230819
     20          7           0       -1.700457    0.069239   -1.694920
     21          8           0       -2.336855   -2.071648   -1.575178
     22          1           0       -2.071901    2.128557    0.807834
     23          1           0       -1.365570   -0.153511   -3.477486
 ---------------------------------------------------------------------
                    Distance matrix (angstroms):
                    1          2          3          4          5
     1  C    0.000000
     2  H    1.089717   0.000000
     3  H    1.092532   1.768935   0.000000
     4  H    6.942078   7.754589   6.073442   0.000000
     5  H    1.093732   1.761058   1.803858   7.389167   0.000000
     6  H    1.093462   1.762467   1.799563   6.842538   1.804340
     7  C    6.278222   7.291606   5.627730   2.620556   6.364270
     8  C    5.328288   6.398015   4.868120   3.915783   5.229388
     9  C    3.867794   4.920879   3.365425   4.007987   3.904662
    10  N    5.819023   6.902903   5.591940   4.796365   5.685594
    11  O    3.756056   4.689455   2.983974   3.337138   4.072774
    12  O    3.176523   4.265257   3.047319   5.318930   2.978557
    13  C    6.323476   7.279405   5.684173   1.972143   6.634362
    14  H    7.294799   8.327247   6.682328   3.172979   7.309368
    15  H    6.268167   7.220389   5.480567   2.338979   6.373630
    16  H    5.624999   6.678459   5.171838   4.583883   5.343962
    17  H    6.188869   7.206477   5.872220   3.947446   6.363118
    18  H    5.296189   6.368250   5.250083   5.550689   5.078138
    19  H    2.197438   3.285472   2.191084   5.730926   2.080661
    20  N    6.341389   7.304801   5.890567   3.108288   6.664208
    21  O    6.809871   7.659919   6.047056   0.976762   7.272004
    22  H    6.752626   7.840192   6.538842   5.317497   6.534820
    23  H    7.038055   7.862362   6.644577   3.832956   7.568193
                    6          7          8          9         10
     6  H    0.000000
     7  C    6.173481   0.000000
     8  C    5.221370   1.539115   0.000000
     9  C    3.804292   2.477522   1.521354   0.000000
    10  N    5.473106   2.490045   1.475362   2.437797   0.000000
    11  O    3.778186   2.713305   2.421882   1.227938   3.463063
    12  O    3.053740   3.675826   2.369245   1.343831   2.723175
    13  C    6.029674   1.501385   2.510403   2.910818   2.976530
    14  H    7.170129   1.096474   2.174610   3.439769   2.743450
    15  H    6.332486   1.091969   2.160613   2.720492   3.423114
    16  H    5.689726   2.155888   1.098138   2.125307   2.149773
    17  H    5.661103   2.519443   2.441706   2.978788   1.790831
    18  H    4.892602   3.361625   2.081690   2.521535   1.019283
    19  H    2.129916   4.438671   3.267616   1.970601   3.659389
    20  N    5.839541   2.424215   2.862497   3.202261   2.678990
    21  O    6.561912   2.479133   3.676285   3.808636   4.290310
    22  H    6.432825   2.870528   2.098038   3.340478   1.017462
    23  H    6.366694   4.139954   4.631862   4.650798   4.333903
                   11         12         13         14         15
    11  O    0.000000
    12  O    2.286245   0.000000
    13  C    2.805572   4.080861   0.000000
    14  H    3.802225   4.512852   2.123434   0.000000
    15  H    2.621499   4.005259   2.130782   1.771124   0.000000
    16  H    3.026729   2.715358   3.444094   2.521757   2.433907
    17  H    3.495479   3.586095   1.988519   2.854401   3.533832
    18  H    3.656231   2.272415   3.754796   3.733008   4.195121
    19  H    2.471210   0.984055   4.687748   5.358426   4.644862
    20  N    3.341132   4.058317   1.297157   2.865865   3.290545
    21  O    3.286734   5.043936   1.321393   3.026220   2.612009
    22  H    4.362981   3.603113   3.526542   2.726407   3.819362
    23  H    4.516178   5.364973   2.731109   4.551240   4.847386
                   16         17         18         19         20
    16  H    0.000000
    17  H    3.467704   0.000000
    18  H    2.598926   2.375549   0.000000
    19  H    3.600926   4.303542   3.149942   0.000000
    20  N    3.923872   1.052876   3.310106   4.659557   0.000000
    21  O    4.517986   3.170662   5.029155   5.491796   2.236680
    22  H    2.421661   2.366391   1.672511   4.566362   3.262290
    23  H    5.714669   2.565806   4.765371   5.744994   1.827378
                   21         22         23
    21  O    0.000000
    22  H    4.836390   0.000000
    23  H    2.870788   4.906191   0.000000
 Stoichiometry    C5H13N2O3(1+)
 Framework group  C1[X(C5H13N2O3)]
 Deg. of freedom    63
 Full point group                 C1      NOp   1
 Largest Abelian subgroup         C1      NOp   1
 Largest concise Abelian subgroup C1      NOp   1
                         Standard orientation:                         
 ---------------------------------------------------------------------
 Center     Atomic      Atomic             Coordinates (Angstroms)
 Number     Number       Type             X           Y           Z
 ---------------------------------------------------------------------
      1          6           0       -4.364555   -0.967060    0.311149
      2          1           0       -5.265388   -1.576616    0.377682
      3          1           0       -3.651249   -1.478641   -0.339317
      4          1           0        2.346216   -2.203015   -0.965726
      5          1           0       -4.653182    0.002794   -0.103975
      6          1           0       -3.961169   -0.859717    1.321800
      7          6           0        1.641612    0.320956   -0.986169
      8          6           0        0.408437    1.187084   -0.673155
      9          6           0       -0.769822    0.258241   -0.421217
     10          7           0        0.625716    2.018225    0.526298
     11          8           0       -0.729036   -0.950676   -0.632614
     12          8           0       -1.827288    0.928464    0.067092
     13          6           0        1.947189   -0.621084    0.142255
     14          1           0        2.516474    0.959659   -1.156258
     15          1           0        1.457454   -0.250701   -1.898139
     16          1           0        0.168841    1.786475   -1.561543
     17          1           0        1.460864    0.759526    1.488215
     18          1           0       -0.254447    2.311761    0.948301
     19          1           0       -2.631738    0.380656    0.212463
     20          7           0        1.842430   -0.214582    1.369608
     21          8           0        2.377311   -1.855073   -0.053568
     22          1           0        1.223425    2.823775    0.355825
     23          1           0        2.221815   -1.331992    2.764876
 ---------------------------------------------------------------------
 Rotational constants (GHZ):      1.7767747      0.7135386      0.6049149
 Leave Link  202 at Thu Mar 12 19:11:10 2020, MaxMem=    33554432 cpu:         0.0
 (Enter /usr/local/gaussian09d01/g09/l301.exe)
 Standard basis: 6-31G (6D, 7F)
 Ernie: Thresh=  0.10000D-02 Tol=  0.10000D-05 Strict=F.
 There are   116 symmetry adapted cartesian basis functions of A   symmetry.
 There are   116 symmetry adapted basis functions of A   symmetry.
   116 basis functions,   272 primitive gaussians,   116 cartesian basis functions
    40 alpha electrons       40 beta electrons
       nuclear repulsion energy       583.1888742252 Hartrees.
 IExCor= 4336 DFT=T Ex+Corr=M062X ExCW=0 ScaHFX=  0.540000
 ScaDFX=  1.000000  1.000000  1.000000  1.000000 ScalE2=  1.000000  1.000000
 IRadAn=      0 IRanWt=     -1 IRanGd=            0 ICorTp=0 IEmpDi=  4
 NAtoms=   23 NActive=   23 NUniq=   23 SFac= 1.00D+00 NAtFMM=   60 NAOKFM=F Big=F
 Integral buffers will be    131072 words long.
 Raffenetti 2 integral format.
 Two-electron integral symmetry is turned on.
 Leave Link  301 at Thu Mar 12 19:11:10 2020, MaxMem=    33554432 cpu:         0.0
 (Enter /usr/local/gaussian09d01/g09/l302.exe)
 NPDir=0 NMtPBC=     1 NCelOv=     1 NCel=       1 NClECP=     1 NCelD=      1
         NCelK=      1 NCelE2=     1 NClLst=     1 CellRange=     0.0.
 One-electron integrals computed using PRISM.
 NBasis=   116 RedAO= T EigKep=  3.62D-03  NBF=   116
 NBsUse=   116 1.00D-06 EigRej= -1.00D+00 NBFU=   116
 Precomputing XC quadrature grid using
 IXCGrd= 4 IRadAn=           0 IRanWt=          -1 IRanGd=           0 AccXCQ= 0.00D+00.
 Generated NRdTot=       0 NPtTot=           0 NUsed=           0 NTot=          32
 NSgBfM=   115   115   115   115   115 MxSgAt=    23 MxSgA2=    23.
 Leave Link  302 at Thu Mar 12 19:11:10 2020, MaxMem=    33554432 cpu:         0.3
 (Enter /usr/local/gaussian09d01/g09/l303.exe)
 DipDrv:  MaxL=1.
 Leave Link  303 at Thu Mar 12 19:11:10 2020, MaxMem=    33554432 cpu:         0.0
 (Enter /usr/local/gaussian09d01/g09/l401.exe)
 ExpMin= 1.61D-01 ExpMax= 5.48D+03 ExpMxC= 8.25D+02 IAcc=1 IRadAn=         1 AccDes= 0.00D+00
 Harris functional with IExCor= 1009 and IRadAn=       1 diagonalized for initial guess.
 HarFok:  IExCor= 1009 AccDes= 0.00D+00 IRadAn=         1 IDoV= 1 UseB2=F ITyADJ=14
 ICtDFT=  3500011 ScaDFX=  1.000000  1.000000  1.000000  1.000000
 FoFCou: FMM=F IPFlag=           0 FMFlag=      100000 FMFlg1=           0
         NFxFlg=           0 DoJE=T BraDBF=F KetDBF=T FulRan=T
         wScrn=  0.000000 ICntrl=     500 IOpCl=  0 I1Cent=   200000004 NGrid=           0
         NMat0=    1 NMatS0=      1 NMatT0=    0 NMatD0=    1 NMtDS0=    0 NMtDT0=    0
 Petite list used in FoFCou.
 Harris En= -532.619460794681    
 JPrj=0 DoOrth=F DoCkMO=F.
 Leave Link  401 at Thu Mar 12 19:11:11 2020, MaxMem=    33554432 cpu:         0.8
 (Enter /usr/local/gaussian09d01/g09/l502.exe)
 Closed shell SCF:
 Using DIIS extrapolation, IDIIS=  1040.
 Integral symmetry usage will be decided dynamically.
 Keep R1 ints in memory in canonical form, NReq=24030401.
 IVT=       60528 IEndB=       60528 NGot=    33554432 MDV=    10465614
 LenX=    10465614 LenY=    10451717
 Requested convergence on RMS density matrix=1.00D-08 within 128 cycles.
 Requested convergence on MAX density matrix=1.00D-06.
 Requested convergence on             energy=1.00D-06.
 No special actions if energy rises.
 FoFCou: FMM=F IPFlag=           0 FMFlag=           0 FMFlg1=           0
         NFxFlg=           0 DoJE=F BraDBF=F KetDBF=F FulRan=T
         wScrn=  0.000000 ICntrl=     600 IOpCl=  0 I1Cent=           0 NGrid=           0
         NMat0=    1 NMatS0=   6786 NMatT0=    0 NMatD0=    1 NMtDS0=    0 NMtDT0=    0
 Symmetry not used in FoFCou.
 Integral accuracy reduced to 1.0D-05 until final iterations.

 Cycle   1  Pass 0  IDiag  1:
 E= -532.486585739306    
 DIIS: error= 5.93D-02 at cycle   1 NSaved=   1.
 NSaved= 1 IEnMin= 1 EnMin= -532.486585739306     IErMin= 1 ErrMin= 5.93D-02
 ErrMax= 5.93D-02  0.00D+00 EMaxC= 1.00D-01 BMatC= 3.23D-01 BMatP= 3.23D-01
 IDIUse=3 WtCom= 4.07D-01 WtEn= 5.93D-01
 Coeff-Com:  0.100D+01
 Coeff-En:   0.100D+01
 Coeff:      0.100D+01
 Gap=     0.117 Goal=   None    Shift=    0.000
 GapD=    0.117 DampG=1.000 DampE=0.500 DampFc=0.5000 IDamp=-1.
 Damping current iteration by 5.00D-01
 RMSDP=8.75D-03 MaxDP=1.64D-01              OVMax= 1.97D-01

 Cycle   2  Pass 0  IDiag  1:
 E= -532.616156021102     Delta-E=       -0.129570281797 Rises=F Damp=T
 DIIS: error= 9.48D-03 at cycle   2 NSaved=   2.
 NSaved= 2 IEnMin= 2 EnMin= -532.616156021102     IErMin= 2 ErrMin= 9.48D-03
 ErrMax= 9.48D-03  0.00D+00 EMaxC= 1.00D-01 BMatC= 2.10D-02 BMatP= 3.23D-01
 IDIUse=3 WtCom= 9.05D-01 WtEn= 9.48D-02
 Coeff-Com:  0.588D-01 0.941D+00
 Coeff-En:   0.902D-01 0.910D+00
 Coeff:      0.618D-01 0.938D+00
 Gap=     0.237 Goal=   None    Shift=    0.000
 RMSDP=2.24D-03 MaxDP=2.89D-02 DE=-1.30D-01 OVMax= 1.13D-01

 Cycle   3  Pass 0  IDiag  1:
 E= -532.761687214698     Delta-E=       -0.145531193596 Rises=F Damp=F
 DIIS: error= 1.17D-02 at cycle   3 NSaved=   3.
 NSaved= 3 IEnMin= 3 EnMin= -532.761687214698     IErMin= 2 ErrMin= 9.48D-03
 ErrMax= 1.17D-02  0.00D+00 EMaxC= 1.00D-01 BMatC= 1.58D-02 BMatP= 2.10D-02
 IDIUse=3 WtCom= 8.83D-01 WtEn= 1.17D-01
 Coeff-Com: -0.101D-01 0.460D+00 0.550D+00
 Coeff-En:   0.000D+00 0.000D+00 0.100D+01
 Coeff:     -0.888D-02 0.406D+00 0.603D+00
 Gap=     0.234 Goal=   None    Shift=    0.000
 RMSDP=1.32D-03 MaxDP=2.99D-02 DE=-1.46D-01 OVMax= 4.33D-02

 Cycle   4  Pass 0  IDiag  1:
 E= -532.772569084371     Delta-E=       -0.010881869672 Rises=F Damp=F
 DIIS: error= 7.13D-03 at cycle   4 NSaved=   4.
 NSaved= 4 IEnMin= 4 EnMin= -532.772569084371     IErMin= 4 ErrMin= 7.13D-03
 ErrMax= 7.13D-03  0.00D+00 EMaxC= 1.00D-01 BMatC= 3.70D-03 BMatP= 1.58D-02
 IDIUse=3 WtCom= 9.29D-01 WtEn= 7.13D-02
 Coeff-Com: -0.502D-02 0.274D-01 0.330D+00 0.648D+00
 Coeff-En:   0.000D+00 0.000D+00 0.183D+00 0.817D+00
 Coeff:     -0.466D-02 0.255D-01 0.320D+00 0.660D+00
 Gap=     0.231 Goal=   None    Shift=    0.000
 RMSDP=4.94D-04 MaxDP=8.67D-03 DE=-1.09D-02 OVMax= 1.38D-02

 Cycle   5  Pass 0  IDiag  1:
 E= -532.775354550443     Delta-E=       -0.002785466073 Rises=F Damp=F
 DIIS: error= 9.04D-04 at cycle   5 NSaved=   5.
 NSaved= 5 IEnMin= 5 EnMin= -532.775354550443     IErMin= 5 ErrMin= 9.04D-04
 ErrMax= 9.04D-04  0.00D+00 EMaxC= 1.00D-01 BMatC= 1.49D-04 BMatP= 3.70D-03
 IDIUse=3 WtCom= 9.91D-01 WtEn= 9.04D-03
 Coeff-Com: -0.811D-03-0.979D-02 0.135D+00 0.328D+00 0.547D+00
 Coeff-En:   0.000D+00 0.000D+00 0.000D+00 0.000D+00 0.100D+01
 Coeff:     -0.803D-03-0.970D-02 0.134D+00 0.325D+00 0.551D+00
 Gap=     0.231 Goal=   None    Shift=    0.000
 RMSDP=1.01D-04 MaxDP=1.71D-03 DE=-2.79D-03 OVMax= 2.21D-03

 Cycle   6  Pass 0  IDiag  1:
 E= -532.775483742867     Delta-E=       -0.000129192423 Rises=F Damp=F
 DIIS: error= 2.68D-04 at cycle   6 NSaved=   6.
 NSaved= 6 IEnMin= 6 EnMin= -532.775483742867     IErMin= 6 ErrMin= 2.68D-04
 ErrMax= 2.68D-04  0.00D+00 EMaxC= 1.00D-01 BMatC= 4.42D-06 BMatP= 1.49D-04
 IDIUse=3 WtCom= 9.97D-01 WtEn= 2.68D-03
 Coeff-Com:  0.674D-03-0.355D-02 0.547D-02 0.520D-02 0.109D+00 0.883D+00
 Coeff-En:   0.000D+00 0.000D+00 0.000D+00 0.000D+00 0.000D+00 0.100D+01
 Coeff:      0.672D-03-0.354D-02 0.545D-02 0.518D-02 0.109D+00 0.883D+00
 Gap=     0.231 Goal=   None    Shift=    0.000
 RMSDP=3.39D-05 MaxDP=3.68D-04 DE=-1.29D-04 OVMax= 1.27D-03

 Cycle   7  Pass 0  IDiag  1:
 E= -532.775488948327     Delta-E=       -0.000005205460 Rises=F Damp=F
 DIIS: error= 9.24D-05 at cycle   7 NSaved=   7.
 NSaved= 7 IEnMin= 7 EnMin= -532.775488948327     IErMin= 7 ErrMin= 9.24D-05
 ErrMax= 9.24D-05  0.00D+00 EMaxC= 1.00D-01 BMatC= 6.04D-07 BMatP= 4.42D-06
 IDIUse=1 WtCom= 1.00D+00 WtEn= 0.00D+00
 Coeff-Com:  0.393D-03-0.487D-03-0.133D-01-0.376D-01-0.179D-01 0.334D+00
 Coeff-Com:  0.735D+00
 Coeff:      0.393D-03-0.487D-03-0.133D-01-0.376D-01-0.179D-01 0.334D+00
 Coeff:      0.735D+00
 Gap=     0.231 Goal=   None    Shift=    0.000
 RMSDP=1.41D-05 MaxDP=2.91D-04 DE=-5.21D-06 OVMax= 3.01D-04

 Cycle   8  Pass 0  IDiag  1:
 E= -532.775489696383     Delta-E=       -0.000000748057 Rises=F Damp=F
 DIIS: error= 2.85D-05 at cycle   8 NSaved=   8.
 NSaved= 8 IEnMin= 8 EnMin= -532.775489696383     IErMin= 8 ErrMin= 2.85D-05
 ErrMax= 2.85D-05  0.00D+00 EMaxC= 1.00D-01 BMatC= 9.81D-08 BMatP= 6.04D-07
 IDIUse=1 WtCom= 1.00D+00 WtEn= 0.00D+00
 Coeff-Com:  0.893D-04 0.211D-03-0.658D-02-0.183D-01-0.184D-01 0.649D-01
 Coeff-Com:  0.331D+00 0.647D+00
 Coeff:      0.893D-04 0.211D-03-0.658D-02-0.183D-01-0.184D-01 0.649D-01
 Coeff:      0.331D+00 0.647D+00
 Gap=     0.231 Goal=   None    Shift=    0.000
 RMSDP=3.83D-06 MaxDP=8.91D-05 DE=-7.48D-07 OVMax= 1.74D-04

 Initial convergence to 1.0D-05 achieved.  Increase integral accuracy.
 Cycle   9  Pass 1  IDiag  1:
 E= -532.775638449676     Delta-E=       -0.000148753293 Rises=F Damp=F
 DIIS: error= 1.35D-04 at cycle   1 NSaved=   1.
 NSaved= 1 IEnMin= 1 EnMin= -532.775638449676     IErMin= 1 ErrMin= 1.35D-04
 ErrMax= 1.35D-04  0.00D+00 EMaxC= 1.00D-01 BMatC= 1.78D-06 BMatP= 1.78D-06
 IDIUse=3 WtCom= 9.99D-01 WtEn= 1.35D-03
 Coeff-Com:  0.100D+01
 Coeff-En:   0.100D+01
 Coeff:      0.100D+01
 Gap=     0.231 Goal=   None    Shift=    0.000
 RMSDP=3.83D-06 MaxDP=8.91D-05 DE=-1.49D-04 OVMax= 1.87D-04

 Cycle  10  Pass 1  IDiag  1:
 E= -532.775640142392     Delta-E=       -0.000001692716 Rises=F Damp=F
 DIIS: error= 7.69D-05 at cycle   2 NSaved=   2.
 NSaved= 2 IEnMin= 2 EnMin= -532.775640142392     IErMin= 2 ErrMin= 7.69D-05
 ErrMax= 7.69D-05  0.00D+00 EMaxC= 1.00D-01 BMatC= 2.99D-07 BMatP= 1.78D-06
 IDIUse=1 WtCom= 1.00D+00 WtEn= 0.00D+00
 Coeff-Com:  0.204D+00 0.796D+00
 Coeff:      0.204D+00 0.796D+00
 Gap=     0.231 Goal=   None    Shift=    0.000
 RMSDP=6.93D-06 MaxDP=1.35D-04 DE=-1.69D-06 OVMax= 1.56D-04

 Cycle  11  Pass 1  IDiag  1:
 E= -532.775640353345     Delta-E=       -0.000000210952 Rises=F Damp=F
 DIIS: error= 3.43D-05 at cycle   3 NSaved=   3.
 NSaved= 3 IEnMin= 3 EnMin= -532.775640353345     IErMin= 3 ErrMin= 3.43D-05
 ErrMax= 3.43D-05  0.00D+00 EMaxC= 1.00D-01 BMatC= 1.16D-07 BMatP= 2.99D-07
 IDIUse=1 WtCom= 1.00D+00 WtEn= 0.00D+00
 Coeff-Com: -0.378D-01 0.368D+00 0.669D+00
 Coeff:     -0.378D-01 0.368D+00 0.669D+00
 Gap=     0.231 Goal=   None    Shift=    0.000
 RMSDP=3.28D-06 MaxDP=6.81D-05 DE=-2.11D-07 OVMax= 7.37D-05

 Cycle  12  Pass 1  IDiag  1:
 E= -532.775640456706     Delta-E=       -0.000000103362 Rises=F Damp=F
 DIIS: error= 8.20D-06 at cycle   4 NSaved=   4.
 NSaved= 4 IEnMin= 4 EnMin= -532.775640456706     IErMin= 4 ErrMin= 8.20D-06
 ErrMax= 8.20D-06  0.00D+00 EMaxC= 1.00D-01 BMatC= 9.33D-09 BMatP= 1.16D-07
 IDIUse=1 WtCom= 1.00D+00 WtEn= 0.00D+00
 Coeff-Com: -0.285D-01 0.167D+00 0.359D+00 0.503D+00
 Coeff:     -0.285D-01 0.167D+00 0.359D+00 0.503D+00
 Gap=     0.231 Goal=   None    Shift=    0.000
 RMSDP=7.54D-07 MaxDP=1.71D-05 DE=-1.03D-07 OVMax= 2.20D-05

 Cycle  13  Pass 1  IDiag  1:
 E= -532.775640464283     Delta-E=       -0.000000007576 Rises=F Damp=F
 DIIS: error= 2.08D-06 at cycle   5 NSaved=   5.
 NSaved= 5 IEnMin= 5 EnMin= -532.775640464283     IErMin= 5 ErrMin= 2.08D-06
 ErrMax= 2.08D-06  0.00D+00 EMaxC= 1.00D-01 BMatC= 4.95D-10 BMatP= 9.33D-09
 IDIUse=1 WtCom= 1.00D+00 WtEn= 0.00D+00
 Coeff-Com: -0.678D-02 0.155D-01 0.537D-01 0.190D+00 0.748D+00
 Coeff:     -0.678D-02 0.155D-01 0.537D-01 0.190D+00 0.748D+00
 Gap=     0.231 Goal=   None    Shift=    0.000
 RMSDP=2.63D-07 MaxDP=7.57D-06 DE=-7.58D-09 OVMax= 8.73D-06

 Cycle  14  Pass 1  IDiag  1:
 E= -532.775640464682     Delta-E=       -0.000000000399 Rises=F Damp=F
 DIIS: error= 7.99D-07 at cycle   6 NSaved=   6.
 NSaved= 6 IEnMin= 6 EnMin= -532.775640464682     IErMin= 6 ErrMin= 7.99D-07
 ErrMax= 7.99D-07  0.00D+00 EMaxC= 1.00D-01 BMatC= 1.78D-10 BMatP= 4.95D-10
 IDIUse=1 WtCom= 1.00D+00 WtEn= 0.00D+00
 Coeff-Com:  0.632D-03-0.151D-01-0.219D-01 0.322D-01 0.432D+00 0.572D+00
 Coeff:      0.632D-03-0.151D-01-0.219D-01 0.322D-01 0.432D+00 0.572D+00
 Gap=     0.231 Goal=   None    Shift=    0.000
 RMSDP=1.14D-07 MaxDP=2.51D-06 DE=-3.99D-10 OVMax= 3.25D-06

 Cycle  15  Pass 1  IDiag  1:
 E= -532.775640464844     Delta-E=       -0.000000000162 Rises=F Damp=F
 DIIS: error= 2.50D-07 at cycle   7 NSaved=   7.
 NSaved= 7 IEnMin= 7 EnMin= -532.775640464844     IErMin= 7 ErrMin= 2.50D-07
 ErrMax= 2.50D-07  0.00D+00 EMaxC= 1.00D-01 BMatC= 3.20D-12 BMatP= 1.78D-10
 IDIUse=1 WtCom= 1.00D+00 WtEn= 0.00D+00
 Coeff-Com:  0.531D-03-0.329D-02-0.781D-02-0.129D-01-0.423D-02 0.885D-01
 Coeff-Com:  0.939D+00
 Coeff:      0.531D-03-0.329D-02-0.781D-02-0.129D-01-0.423D-02 0.885D-01
 Coeff:      0.939D+00
 Gap=     0.231 Goal=   None    Shift=    0.000
 RMSDP=4.74D-08 MaxDP=9.52D-07 DE=-1.62D-10 OVMax= 1.26D-06

 Cycle  16  Pass 1  IDiag  1:
 E= -532.775640464851     Delta-E=       -0.000000000007 Rises=F Damp=F
 DIIS: error= 1.07D-07 at cycle   8 NSaved=   8.
 NSaved= 8 IEnMin= 8 EnMin= -532.775640464851     IErMin= 8 ErrMin= 1.07D-07
 ErrMax= 1.07D-07  0.00D+00 EMaxC= 1.00D-01 BMatC= 1.64D-12 BMatP= 3.20D-12
 IDIUse=1 WtCom= 1.00D+00 WtEn= 0.00D+00
 Coeff-Com:  0.306D-03-0.113D-02-0.323D-02-0.973D-02-0.234D-01 0.120D-01
 Coeff-Com:  0.503D+00 0.522D+00
 Coeff:      0.306D-03-0.113D-02-0.323D-02-0.973D-02-0.234D-01 0.120D-01
 Coeff:      0.503D+00 0.522D+00
 Gap=     0.231 Goal=   None    Shift=    0.000
 RMSDP=1.19D-08 MaxDP=4.08D-07 DE=-7.28D-12 OVMax= 4.84D-07

 Cycle  17  Pass 1  IDiag  1:
 E= -532.775640464848     Delta-E=        0.000000000004 Rises=F Damp=F
 DIIS: error= 7.45D-08 at cycle   9 NSaved=   9.
 NSaved= 9 IEnMin= 8 EnMin= -532.775640464851     IErMin= 9 ErrMin= 7.45D-08
 ErrMax= 7.45D-08  0.00D+00 EMaxC= 1.00D-01 BMatC= 2.41D-13 BMatP= 1.64D-12
 IDIUse=1 WtCom= 1.00D+00 WtEn= 0.00D+00
 Coeff-Com: -0.104D-04 0.406D-03 0.779D-03-0.223D-02-0.115D-01-0.233D-01
 Coeff-Com:  0.445D-02 0.254D+00 0.777D+00
 Coeff:     -0.104D-04 0.406D-03 0.779D-03-0.223D-02-0.115D-01-0.233D-01
 Coeff:      0.445D-02 0.254D+00 0.777D+00
 Gap=     0.231 Goal=   None    Shift=    0.000
 RMSDP=7.48D-09 MaxDP=1.68D-07 DE= 3.64D-12 OVMax= 2.73D-07

 SCF Done:  E(RM062X) =  -532.775640465     A.U. after   17 cycles
            NFock= 17  Conv=0.75D-08     -V/T= 2.0061
 KE= 5.295335209169D+02 PE=-2.398682085695D+03 EE= 7.531840500882D+02
 Leave Link  502 at Thu Mar 12 19:12:05 2020, MaxMem=    33554432 cpu:        54.4
 (Enter /usr/local/gaussian09d01/g09/l601.exe)
 Copying SCF densities to generalized density rwf, IOpCl= 0 IROHF=0.

 **********************************************************************

            Population analysis using the SCF density.

 **********************************************************************

 Orbital symmetries:
       Occupied  (A) (A) (A) (A) (A) (A) (A) (A) (A) (A) (A) (A)
                 (A) (A) (A) (A) (A) (A) (A) (A) (A) (A) (A) (A)
                 (A) (A) (A) (A) (A) (A) (A) (A) (A) (A) (A) (A)
                 (A) (A) (A) (A)
       Virtual   (A) (A) (A) (A) (A) (A) (A) (A) (A) (A) (A) (A)
                 (A) (A) (A) (A) (A) (A) (A) (A) (A) (A) (A) (A)
                 (A) (A) (A) (A) (A) (A) (A) (A) (A) (A) (A) (A)
                 (A) (A) (A) (A) (A) (A) (A) (A) (A) (A) (A) (A)
                 (A) (A) (A) (A) (A) (A) (A) (A) (A) (A) (A) (A)
                 (A) (A) (A) (A) (A) (A) (A) (A) (A) (A) (A) (A)
                 (A) (A) (A) (A)
 The electronic state is 1-A.
 Alpha  occ. eigenvalues --  -19.86918 -19.83708 -19.80092 -14.99528 -14.92980
 Alpha  occ. eigenvalues --  -10.87710 -10.85767 -10.77534 -10.74965 -10.62935
 Alpha  occ. eigenvalues --   -1.41249  -1.39863  -1.30838  -1.22515  -1.17693
 Alpha  occ. eigenvalues --   -1.05216  -0.95886  -0.91466  -0.89825  -0.85430
 Alpha  occ. eigenvalues --   -0.79050  -0.77473  -0.75620  -0.73257  -0.72573
 Alpha  occ. eigenvalues --   -0.71547  -0.68817  -0.66472  -0.64506  -0.63958
 Alpha  occ. eigenvalues --   -0.61205  -0.60414  -0.59497  -0.56946  -0.56724
 Alpha  occ. eigenvalues --   -0.55782  -0.54450  -0.53293  -0.51144  -0.48727
 Alpha virt. eigenvalues --   -0.25584  -0.14360  -0.11810  -0.05807  -0.02241
 Alpha virt. eigenvalues --   -0.00261   0.01443   0.02258   0.05065   0.05544
 Alpha virt. eigenvalues --    0.07238   0.07420   0.08066   0.11154   0.11366
 Alpha virt. eigenvalues --    0.11575   0.12597   0.13547   0.16505   0.19206
 Alpha virt. eigenvalues --    0.21853   0.25263   0.28992   0.39704   0.42982
 Alpha virt. eigenvalues --    0.44249   0.46427   0.47737   0.48337   0.48514
 Alpha virt. eigenvalues --    0.50425   0.52414   0.52584   0.56114   0.58744
 Alpha virt. eigenvalues --    0.59166   0.61434   0.62121   0.64318   0.65329
 Alpha virt. eigenvalues --    0.68091   0.69261   0.71520   0.75396   0.75851
 Alpha virt. eigenvalues --    0.77565   0.79214   0.81457   0.83958   0.84140
 Alpha virt. eigenvalues --    0.85823   0.87669   0.88249   0.88447   0.91170
 Alpha virt. eigenvalues --    0.92120   0.92593   0.94729   0.95293   0.96963
 Alpha virt. eigenvalues --    1.02698   1.04232   1.04853   1.09949   1.12393
 Alpha virt. eigenvalues --    1.12886   1.18712   1.21064   1.29593   1.34635
 Alpha virt. eigenvalues --    1.41275   1.52917   1.62689   1.74940   1.76974
 Alpha virt. eigenvalues --    1.86943
          Condensed to atoms (all electrons):
               1          2          3          4          5          6
     1  C    5.189025   0.375384   0.371801   0.000000   0.370303   0.370824
     2  H    0.375384   0.470358  -0.017965   0.000000  -0.019890  -0.020369
     3  H    0.371801  -0.017965   0.519978   0.000000  -0.029454  -0.030063
     4  H    0.000000   0.000000   0.000000   0.299234   0.000000   0.000000
     5  H    0.370303  -0.019890  -0.029454   0.000000   0.538120  -0.032239
     6  H    0.370824  -0.020369  -0.030063   0.000000  -0.032239   0.545857
     7  C    0.000000   0.000000  -0.000001  -0.005435   0.000000   0.000000
     8  C   -0.000005   0.000001   0.000084   0.000152  -0.000011  -0.000007
     9  C    0.000252   0.000038   0.001493   0.000042  -0.000152  -0.000130
    10  N    0.000000   0.000000  -0.000001   0.000027   0.000000   0.000000
    11  O   -0.001323   0.000015   0.003326   0.000362   0.000043   0.000016
    12  O   -0.005202   0.000175  -0.001629   0.000000  -0.000758  -0.000630
    13  C    0.000000   0.000000   0.000000  -0.015360   0.000000   0.000000
    14  H    0.000000   0.000000   0.000000   0.000003   0.000000   0.000000
    15  H    0.000000   0.000000   0.000000   0.003539   0.000000   0.000000
    16  H    0.000001   0.000000  -0.000002   0.000004   0.000000   0.000000
    17  H    0.000000   0.000000   0.000000  -0.000053   0.000000   0.000000
    18  H   -0.000001   0.000000   0.000000   0.000000   0.000000   0.000000
    19  H    0.026780  -0.000932   0.002070   0.000000   0.005155   0.004679
    20  N    0.000000   0.000000   0.000000   0.005575   0.000000   0.000000
    21  O    0.000000   0.000000   0.000000   0.255277   0.000000   0.000000
    22  H    0.000000   0.000000   0.000000  -0.000001   0.000000   0.000000
    23  H    0.000000   0.000000   0.000000   0.000071   0.000000   0.000000
               7          8          9         10         11         12
     1  C    0.000000  -0.000005   0.000252   0.000000  -0.001323  -0.005202
     2  H    0.000000   0.000001   0.000038   0.000000   0.000015   0.000175
     3  H   -0.000001   0.000084   0.001493  -0.000001   0.003326  -0.001629
     4  H   -0.005435   0.000152   0.000042   0.000027   0.000362   0.000000
     5  H    0.000000  -0.000011  -0.000152   0.000000   0.000043  -0.000758
     6  H    0.000000  -0.000007  -0.000130   0.000000   0.000016  -0.000630
     7  C    5.437758   0.221744  -0.047728  -0.077332   0.007969   0.005336
     8  C    0.221744   5.571447   0.151784   0.191735  -0.124115  -0.148685
     9  C   -0.047728   0.151784   4.752720  -0.049241   0.497243   0.193347
    10  N   -0.077332   0.191735  -0.049241   7.092934   0.002184   0.001866
    11  O    0.007969  -0.124115   0.497243   0.002184   8.121398  -0.108494
    12  O    0.005336  -0.148685   0.193347   0.001866  -0.108494   8.421452
    13  C    0.257980  -0.018049  -0.007912  -0.000440   0.009588  -0.000533
    14  H    0.376742  -0.027865   0.005633  -0.001426   0.000410  -0.000027
    15  H    0.365472  -0.028005  -0.002132   0.003886   0.004772   0.000133
    16  H   -0.043569   0.384842  -0.026944  -0.036019   0.001050   0.000896
    17  H   -0.007458  -0.010875  -0.000774   0.086456   0.000204  -0.000052
    18  H    0.004873  -0.034140  -0.007492   0.320006   0.000226   0.013369
    19  H   -0.000158   0.005469  -0.018667  -0.000119  -0.000577   0.237117
    20  N   -0.103269   0.002161   0.000239  -0.069722  -0.003433   0.000049
    21  O   -0.064019   0.002504  -0.000509  -0.000132  -0.001402  -0.000001
    22  H   -0.000884  -0.028869   0.004124   0.321346  -0.000080  -0.000007
    23  H    0.001331  -0.000040  -0.000021   0.000575   0.000005   0.000000
              13         14         15         16         17         18
     1  C    0.000000   0.000000   0.000000   0.000001   0.000000  -0.000001
     2  H    0.000000   0.000000   0.000000   0.000000   0.000000   0.000000
     3  H    0.000000   0.000000   0.000000  -0.000002   0.000000   0.000000
     4  H   -0.015360   0.000003   0.003539   0.000004  -0.000053   0.000000
     5  H    0.000000   0.000000   0.000000   0.000000   0.000000   0.000000
     6  H    0.000000   0.000000   0.000000   0.000000   0.000000   0.000000
     7  C    0.257980   0.376742   0.365472  -0.043569  -0.007458   0.004873
     8  C   -0.018049  -0.027865  -0.028005   0.384842  -0.010875  -0.034140
     9  C   -0.007912   0.005633  -0.002132  -0.026944  -0.000774  -0.007492
    10  N   -0.000440  -0.001426   0.003886  -0.036019   0.086456   0.320006
    11  O    0.009588   0.000410   0.004772   0.001050   0.000204   0.000226
    12  O   -0.000533  -0.000027   0.000133   0.000896  -0.000052   0.013369
    13  C    4.695713  -0.035984  -0.031472   0.004450  -0.031821   0.000129
    14  H   -0.035984   0.445865  -0.016772  -0.002981  -0.000377  -0.000057
    15  H   -0.031472  -0.016772   0.469323  -0.000668   0.000294  -0.000100
    16  H    0.004450  -0.002981  -0.000668   0.462643   0.000981   0.001003
    17  H   -0.031821  -0.000377   0.000294   0.000981   0.283051  -0.000366
    18  H    0.000129  -0.000057  -0.000100   0.001003  -0.000366   0.337377
    19  H   -0.000012   0.000002  -0.000003  -0.000245  -0.000020  -0.000267
    20  N    0.318014  -0.001761   0.004443  -0.000235   0.255733   0.000306
    21  O    0.301159   0.001050  -0.002534  -0.000066   0.001417   0.000002
    22  H   -0.000311   0.001621  -0.000073  -0.003689  -0.001445  -0.020867
    23  H   -0.000898  -0.000028  -0.000025   0.000002   0.000888  -0.000005
              19         20         21         22         23
     1  C    0.026780   0.000000   0.000000   0.000000   0.000000
     2  H   -0.000932   0.000000   0.000000   0.000000   0.000000
     3  H    0.002070   0.000000   0.000000   0.000000   0.000000
     4  H    0.000000   0.005575   0.255277  -0.000001   0.000071
     5  H    0.005155   0.000000   0.000000   0.000000   0.000000
     6  H    0.004679   0.000000   0.000000   0.000000   0.000000
     7  C   -0.000158  -0.103269  -0.064019  -0.000884   0.001331
     8  C    0.005469   0.002161   0.002504  -0.028869  -0.000040
     9  C   -0.018667   0.000239  -0.000509   0.004124  -0.000021
    10  N   -0.000119  -0.069722  -0.000132   0.321346   0.000575
    11  O   -0.000577  -0.003433  -0.001402  -0.000080   0.000005
    12  O    0.237117   0.000049  -0.000001  -0.000007   0.000000
    13  C   -0.000012   0.318014   0.301159  -0.000311  -0.000898
    14  H    0.000002  -0.001761   0.001050   0.001621  -0.000028
    15  H   -0.000003   0.004443  -0.002534  -0.000073  -0.000025
    16  H   -0.000245  -0.000235  -0.000066  -0.003689   0.000002
    17  H   -0.000020   0.255733   0.001417  -0.001445   0.000888
    18  H   -0.000267   0.000306   0.000002  -0.020867  -0.000005
    19  H    0.275581   0.000011   0.000000   0.000017   0.000000
    20  N    0.000011   7.076831  -0.109728   0.000901   0.187645
    21  O    0.000000  -0.109728   8.168167   0.000002  -0.002105
    22  H    0.000017   0.000901   0.000002   0.369391  -0.000008
    23  H    0.000000   0.187645  -0.002105  -0.000008   0.426820
 Mulliken charges:
               1
     1  C   -0.697840
     2  H    0.213185
     3  H    0.180364
     4  H    0.456562
     5  H    0.168882
     6  H    0.162061
     7  C   -0.329353
     8  C   -0.111259
     9  C    0.554787
    10  N   -0.786584
    11  O   -0.409387
    12  O   -0.607720
    13  C    0.555758
    14  H    0.255953
    15  H    0.229923
    16  H    0.258545
    17  H    0.424218
    18  H    0.386002
    19  H    0.464121
    20  N   -0.563760
    21  O   -0.549082
    22  H    0.358833
    23  H    0.385793
 Sum of Mulliken charges =   1.00000
 Mulliken charges with hydrogens summed into heavy atoms:
               1
     1  C    0.026652
     7  C    0.156522
     8  C    0.147286
     9  C    0.554787
    10  N   -0.041749
    11  O   -0.409387
    12  O   -0.143599
    13  C    0.555758
    20  N    0.246251
    21  O   -0.092520
 Electronic spatial extent (au):  <R**2>=           2007.1549
 Charge=              1.0000 electrons
 Dipole moment (field-independent basis, Debye):
    X=              4.8952    Y=              1.4455    Z=              1.0171  Tot=              5.2046
 Quadrupole moment (field-independent basis, Debye-Ang):
   XX=            -33.4660   YY=            -46.8652   ZZ=            -42.6803
   XY=             -2.4331   XZ=             -0.3034   YZ=             -2.4629
 Traceless Quadrupole moment (field-independent basis, Debye-Ang):
   XX=              7.5378   YY=             -5.8614   ZZ=             -1.6764
   XY=             -2.4331   XZ=             -0.3034   YZ=             -2.4629
 Octapole moment (field-independent basis, Debye-Ang**2):
  XXX=            -20.8151  YYY=             15.5758  ZZZ=             30.6259  XYY=             26.3284
  XXY=            -21.3976  XXZ=              6.5873  XZZ=             37.2725  YZZ=            -18.9854
  YYZ=              1.6179  XYZ=             -2.0991
 Hexadecapole moment (field-independent basis, Debye-Ang**3):
 XXXX=          -1446.9221 YYYY=           -434.5022 ZZZZ=           -145.9384 XXXY=             17.5734
 XXXZ=            -13.9667 YYYX=            -17.2781 YYYZ=             29.7823 ZZZX=             73.8219
 ZZZY=            -45.4573 XXYY=           -325.6134 XXZZ=           -259.8269 YYZZ=            -89.1922
 XXYZ=            -10.1897 YYXZ=             -9.0217 ZZXY=            -62.3153
 N-N= 5.831888742252D+02 E-N=-2.398682082664D+03  KE= 5.295335209169D+02
 No NMR shielding tensors so no spin-rotation constants.
 Leave Link  601 at Thu Mar 12 19:12:05 2020, MaxMem=    33554432 cpu:         0.1
 (Enter /usr/local/gaussian09d01/g09/l9999.exe)
 1\1\GINC-KARURA\SP\RM062X\6-31G\C5H13N2O3(1+)\RTAKE\12-Mar-2020\0\\#p 
 M062X/6-31G\\chk calc\\1,1\C,0,3.824482709,-1.14219544,1.17225369\H,0,
 4.799113079,-1.62961423,1.173808707\H,0,3.053614027,-1.916312598,1.160
 804944\H,0,-2.540416453,-2.844981592,-1.014302773\H,0,3.75960642,-0.53
 291794,2.07824618\H,0,3.765323683,-0.52154146,0.273951194\C,0,-2.40154
 2122,-0.705499021,0.492562549\C,0,-1.33365594,0.193207044,1.141270536\
 C,0,0.021967089,-0.47033751,0.950186539\N,0,-1.303304814,1.529148773,0
 .515945207\O,0,0.155929117,-1.611462803,0.51692019\O,0,1.024922388,0.3
 53392554,1.298656\C,0,-2.121889445,-0.918337302,-0.967112723\H,0,-3.39
 229932,-0.247402335,0.596496855\H,0,-2.419176945,-1.669900059,1.004436
 439\H,0,-1.526304416,0.239474424,2.221387894\H,0,-1.503902114,0.960750
 702,-1.170400229\H,0,-0.410560182,1.997532273,0.666150752\H,0,1.924402
 159,-0.039925506,1.230818645\N,0,-1.700457396,0.069239192,-1.694919761
 \O,0,-2.336854815,-2.071648312,-1.575178364\H,0,-2.071900591,2.1285565
 43,0.807834339\H,0,-1.365569805,-0.153510725,-3.477486206\\Version=ES6
 4L-G09RevD.01\State=1-A\HF=-532.7756405\RMSD=7.476e-09\Dipole=-1.75754
 09,0.6992189,-0.7841792\Quadrupole=4.1699461,-5.1488539,0.9789077,1.71
 9571,2.6930121,0.1168654\PG=C01 [X(C5H13N2O3)]\\@


 SCIENCE AND PEACE WILL TRIUMPH OVER IGNORANCE AND WAR

                          -- PASTEUR
 Job cpu time:       0 days  0 hours  0 minutes 55.8 seconds.
 File lengths (MBytes):  RWF=      7 Int=      0 D2E=      0 Chk=      2 Scr=      1
 Normal termination of Gaussian 09 at Thu Mar 12 19:12:05 2020.
