 Entering Gaussian System, Link 0=g09
 Input=./n20_h23_17.gjf
 Output=./n20_h23_17.log
 Initial command:
 /usr/local/gaussian09d01/g09/l1.exe "/scr/Gau-20618.inp" -scrdir="/scr/"
 Entering Link 1 = /usr/local/gaussian09d01/g09/l1.exe PID=     20619.
  
 Copyright (c) 1988,1990,1992,1993,1995,1998,2003,2009,2013,
            Gaussian, Inc.  All Rights Reserved.
  
 This is part of the Gaussian(R) 09 program.  It is based on
 the Gaussian(R) 03 system (copyright 2003, Gaussian, Inc.),
 the Gaussian(R) 98 system (copyright 1998, Gaussian, Inc.),
 the Gaussian(R) 94 system (copyright 1995, Gaussian, Inc.),
 the Gaussian 92(TM) system (copyright 1992, Gaussian, Inc.),
 the Gaussian 90(TM) system (copyright 1990, Gaussian, Inc.),
 the Gaussian 88(TM) system (copyright 1988, Gaussian, Inc.),
 the Gaussian 86(TM) system (copyright 1986, Carnegie Mellon
 University), and the Gaussian 82(TM) system (copyright 1983,
 Carnegie Mellon University). Gaussian is a federally registered
 trademark of Gaussian, Inc.
  
 This software contains proprietary and confidential information,
 including trade secrets, belonging to Gaussian, Inc.
  
 This software is provided under written license and may be
 used, copied, transmitted, or stored only in accord with that
 written license.
  
 The following legend is applicable only to US Government
 contracts under FAR:
  
                    RESTRICTED RIGHTS LEGEND
  
 Use, reproduction and disclosure by the US Government is
 subject to restrictions as set forth in subparagraphs (a)
 and (c) of the Commercial Computer Software - Restricted
 Rights clause in FAR 52.227-19.
  
 Gaussian, Inc.
 340 Quinnipiac St., Bldg. 40, Wallingford CT 06492
  
  
 ---------------------------------------------------------------
 Warning -- This program may not be used in any manner that
 competes with the business of Gaussian, Inc. or will provide
 assistance to any competitor of Gaussian, Inc.  The licensee
 of this program is prohibited from giving any competitor of
 Gaussian, Inc. access to this program.  By using this program,
 the user acknowledges that Gaussian, Inc. is engaged in the
 business of creating and licensing software in the field of
 computational chemistry and represents and warrants to the
 licensee that it is not a competitor of Gaussian, Inc. and that
 it will not use this program in any manner prohibited above.
 ---------------------------------------------------------------
  

 Cite this work as:
 Gaussian 09, Revision D.01,
 M. J. Frisch, G. W. Trucks, H. B. Schlegel, G. E. Scuseria, 
 M. A. Robb, J. R. Cheeseman, G. Scalmani, V. Barone, B. Mennucci, 
 G. A. Petersson, H. Nakatsuji, M. Caricato, X. Li, H. P. Hratchian, 
 A. F. Izmaylov, J. Bloino, G. Zheng, J. L. Sonnenberg, M. Hada, 
 M. Ehara, K. Toyota, R. Fukuda, J. Hasegawa, M. Ishida, T. Nakajima, 
 Y. Honda, O. Kitao, H. Nakai, T. Vreven, J. A. Montgomery, Jr., 
 J. E. Peralta, F. Ogliaro, M. Bearpark, J. J. Heyd, E. Brothers, 
 K. N. Kudin, V. N. Staroverov, T. Keith, R. Kobayashi, J. Normand, 
 K. Raghavachari, A. Rendell, J. C. Burant, S. S. Iyengar, J. Tomasi, 
 M. Cossi, N. Rega, J. M. Millam, M. Klene, J. E. Knox, J. B. Cross, 
 V. Bakken, C. Adamo, J. Jaramillo, R. Gomperts, R. E. Stratmann, 
 O. Yazyev, A. J. Austin, R. Cammi, C. Pomelli, J. W. Ochterski, 
 R. L. Martin, K. Morokuma, V. G. Zakrzewski, G. A. Voth, 
 P. Salvador, J. J. Dannenberg, S. Dapprich, A. D. Daniels, 
 O. Farkas, J. B. Foresman, J. V. Ortiz, J. Cioslowski, 
 and D. J. Fox, Gaussian, Inc., Wallingford CT, 2013.
 
 ******************************************
 Gaussian 09:  ES64L-G09RevD.01 24-Apr-2013
                12-Mar-2020 
 ******************************************
 --------------
 #p M062X/6-31G
 --------------
 1/38=1/1;
 2/12=2,17=6,18=5,40=1/2;
 3/5=1,6=6,11=2,16=1,25=1,30=1,74=-55/1,2,3;
 4//1;
 5/5=2,38=5/2;
 6/7=2,8=2,9=2,10=2,28=1/1;
 99/5=1,9=1/99;
 Leave Link    1 at Thu Mar 12 19:10:14 2020, MaxMem=           0 cpu:         0.0
 (Enter /usr/local/gaussian09d01/g09/l101.exe)
 --------
 chk calc
 --------
 Symbolic Z-matrix:
 Charge =  1 Multiplicity = 1
 C                     3.82448  -1.1422    1.17225 
 H                     4.79911  -1.62961   1.17381 
 H                     3.05361  -1.91631   1.1608 
 H                    -2.54042  -2.84498  -1.0143 
 H                     3.75961  -0.53292   2.07825 
 H                     3.76532  -0.52154   0.27395 
 C                    -2.40154  -0.7055    0.49256 
 C                    -1.33366   0.19321   1.14127 
 C                     0.02197  -0.47034   0.95019 
 N                    -1.3033    1.52915   0.51595 
 O                     0.15593  -1.61146   0.51692 
 O                     1.02492   0.35339   1.29866 
 C                    -2.12189  -0.91834  -0.96711 
 H                    -3.3923   -0.2474    0.5965 
 H                    -2.41918  -1.6699    1.00444 
 H                    -1.5263    0.23947   2.22139 
 H                    -1.5039    0.96075  -1.1704 
 H                    -0.41056   1.99753   0.66615 
 H                     1.9244   -0.03993   1.23082 
 N                    -1.70046   0.06924  -1.69492 
 O                    -2.33685  -2.07165  -1.57518 
 H                    -2.0719    2.12856   0.80783 
 H                    -1.38417  -0.14114  -3.37845 
 
 NAtoms=     23 NQM=       23 NQMF=       0 NMMI=      0 NMMIF=      0
                NMic=       0 NMicF=      0.
                    Isotopes and Nuclear Properties:
 (Nuclear quadrupole moments (NQMom) in fm**2, nuclear magnetic moments (NMagM)
  in nuclear magnetons)

  Atom         1           2           3           4           5           6           7           8           9          10
 IAtWgt=          12           1           1           1           1           1          12          12          12          14
 AtmWgt=  12.0000000   1.0078250   1.0078250   1.0078250   1.0078250   1.0078250  12.0000000  12.0000000  12.0000000  14.0030740
 NucSpn=           0           1           1           1           1           1           0           0           0           2
 AtZEff=   0.0000000   0.0000000   0.0000000   0.0000000   0.0000000   0.0000000   0.0000000   0.0000000   0.0000000   0.0000000
 NQMom=    0.0000000   0.0000000   0.0000000   0.0000000   0.0000000   0.0000000   0.0000000   0.0000000   0.0000000   2.0440000
 NMagM=    0.0000000   2.7928460   2.7928460   2.7928460   2.7928460   2.7928460   0.0000000   0.0000000   0.0000000   0.4037610
 AtZNuc=   6.0000000   1.0000000   1.0000000   1.0000000   1.0000000   1.0000000   6.0000000   6.0000000   6.0000000   7.0000000

  Atom        11          12          13          14          15          16          17          18          19          20
 IAtWgt=          16          16          12           1           1           1           1           1           1          14
 AtmWgt=  15.9949146  15.9949146  12.0000000   1.0078250   1.0078250   1.0078250   1.0078250   1.0078250   1.0078250  14.0030740
 NucSpn=           0           0           0           1           1           1           1           1           1           2
 AtZEff=   0.0000000   0.0000000   0.0000000   0.0000000   0.0000000   0.0000000   0.0000000   0.0000000   0.0000000   0.0000000
 NQMom=    0.0000000   0.0000000   0.0000000   0.0000000   0.0000000   0.0000000   0.0000000   0.0000000   0.0000000   2.0440000
 NMagM=    0.0000000   0.0000000   0.0000000   2.7928460   2.7928460   2.7928460   2.7928460   2.7928460   2.7928460   0.4037610
 AtZNuc=   8.0000000   8.0000000   6.0000000   1.0000000   1.0000000   1.0000000   1.0000000   1.0000000   1.0000000   7.0000000

  Atom        21          22          23
 IAtWgt=          16           1           1
 AtmWgt=  15.9949146   1.0078250   1.0078250
 NucSpn=           0           1           1
 AtZEff=   0.0000000   0.0000000   0.0000000
 NQMom=    0.0000000   0.0000000   0.0000000
 NMagM=    0.0000000   2.7928460   2.7928460
 AtZNuc=   8.0000000   1.0000000   1.0000000
 Leave Link  101 at Thu Mar 12 19:10:14 2020, MaxMem=    33554432 cpu:         0.0
 (Enter /usr/local/gaussian09d01/g09/l202.exe)
                          Input orientation:                          
 ---------------------------------------------------------------------
 Center     Atomic      Atomic             Coordinates (Angstroms)
 Number     Number       Type             X           Y           Z
 ---------------------------------------------------------------------
      1          6           0        3.824483   -1.142195    1.172254
      2          1           0        4.799113   -1.629614    1.173809
      3          1           0        3.053614   -1.916313    1.160805
      4          1           0       -2.540416   -2.844982   -1.014303
      5          1           0        3.759606   -0.532918    2.078246
      6          1           0        3.765324   -0.521541    0.273951
      7          6           0       -2.401542   -0.705499    0.492563
      8          6           0       -1.333656    0.193207    1.141271
      9          6           0        0.021967   -0.470338    0.950187
     10          7           0       -1.303305    1.529149    0.515945
     11          8           0        0.155929   -1.611463    0.516920
     12          8           0        1.024922    0.353393    1.298656
     13          6           0       -2.121889   -0.918337   -0.967113
     14          1           0       -3.392299   -0.247402    0.596497
     15          1           0       -2.419177   -1.669900    1.004436
     16          1           0       -1.526304    0.239474    2.221388
     17          1           0       -1.503902    0.960751   -1.170400
     18          1           0       -0.410560    1.997532    0.666151
     19          1           0        1.924402   -0.039926    1.230819
     20          7           0       -1.700457    0.069239   -1.694920
     21          8           0       -2.336855   -2.071648   -1.575178
     22          1           0       -2.071901    2.128557    0.807834
     23          1           0       -1.384175   -0.141136   -3.378455
 ---------------------------------------------------------------------
                    Distance matrix (angstroms):
                    1          2          3          4          5
     1  C    0.000000
     2  H    1.089717   0.000000
     3  H    1.092532   1.768935   0.000000
     4  H    6.942078   7.754589   6.073442   0.000000
     5  H    1.093732   1.761058   1.803858   7.389167   0.000000
     6  H    1.093462   1.762467   1.799563   6.842538   1.804340
     7  C    6.278222   7.291606   5.627730   2.620556   6.364270
     8  C    5.328288   6.398015   4.868120   3.915783   5.229388
     9  C    3.867794   4.920879   3.365425   4.007987   3.904662
    10  N    5.819023   6.902903   5.591940   4.796365   5.685594
    11  O    3.756056   4.689455   2.983974   3.337138   4.072774
    12  O    3.176523   4.265257   3.047319   5.318930   2.978557
    13  C    6.323476   7.279405   5.684173   1.972143   6.634362
    14  H    7.294799   8.327247   6.682328   3.172979   7.309368
    15  H    6.268167   7.220389   5.480567   2.338979   6.373630
    16  H    5.624999   6.678459   5.171838   4.583883   5.343962
    17  H    6.188869   7.206477   5.872220   3.947446   6.363118
    18  H    5.296189   6.368250   5.250083   5.550689   5.078138
    19  H    2.197438   3.285472   2.191084   5.730926   2.080661
    20  N    6.341389   7.304801   5.890567   3.108288   6.664208
    21  O    6.809871   7.659919   6.047056   0.976762   7.272004
    22  H    6.752626   7.840192   6.538842   5.317497   6.534820
    23  H    6.988646   7.821235   6.591669   3.773181   7.509165
                    6          7          8          9         10
     6  H    0.000000
     7  C    6.173481   0.000000
     8  C    5.221370   1.539115   0.000000
     9  C    3.804292   2.477522   1.521354   0.000000
    10  N    5.473106   2.490045   1.475362   2.437797   0.000000
    11  O    3.778186   2.713305   2.421882   1.227938   3.463063
    12  O    3.053740   3.675826   2.369245   1.343831   2.723175
    13  C    6.029674   1.501385   2.510403   2.910818   2.976530
    14  H    7.170129   1.096474   2.174610   3.439769   2.743450
    15  H    6.332486   1.091969   2.160613   2.720492   3.423114
    16  H    5.689726   2.155888   1.098138   2.125307   2.149773
    17  H    5.661103   2.519443   2.441706   2.978788   1.790831
    18  H    4.892602   3.361625   2.081690   2.521535   1.019283
    19  H    2.129916   4.438671   3.267616   1.970601   3.659389
    20  N    5.839541   2.424215   2.862497   3.202261   2.678990
    21  O    6.561912   2.479133   3.676285   3.808636   4.290310
    22  H    6.432825   2.870528   2.098038   3.340478   1.017462
    23  H    6.324722   4.042068   4.532356   4.563194   4.238247
                   11         12         13         14         15
    11  O    0.000000
    12  O    2.286245   0.000000
    13  C    2.805572   4.080861   0.000000
    14  H    3.802225   4.512852   2.123434   0.000000
    15  H    2.621499   4.005259   2.130782   1.771124   0.000000
    16  H    3.026729   2.715358   3.444094   2.521757   2.433907
    17  H    3.495479   3.586095   1.988519   2.854401   3.533832
    18  H    3.656231   2.272415   3.754796   3.733008   4.195121
    19  H    2.471210   0.984055   4.687748   5.358426   4.644862
    20  N    3.341132   4.058317   1.297157   2.865865   3.290545
    21  O    3.286734   5.043936   1.321393   3.026220   2.612009
    22  H    4.362981   3.603113   3.526542   2.726407   3.819362
    23  H    4.439339   5.284285   2.638719   4.454671   4.755847
                   16         17         18         19         20
    16  H    0.000000
    17  H    3.467704   0.000000
    18  H    2.598926   2.375549   0.000000
    19  H    3.600926   4.303542   3.149942   0.000000
    20  N    3.923872   1.052876   3.310106   4.659557   0.000000
    21  O    4.517986   3.170662   5.029155   5.491796   2.236680
    22  H    2.421661   2.366391   1.672511   4.566362   3.262290
    23  H    5.614562   2.470626   4.677677   5.674709   1.725857
                   21         22         23
    21  O    0.000000
    22  H    4.836390   0.000000
    23  H    2.808253   4.811391   0.000000
 Stoichiometry    C5H13N2O3(1+)
 Framework group  C1[X(C5H13N2O3)]
 Deg. of freedom    63
 Full point group                 C1      NOp   1
 Largest Abelian subgroup         C1      NOp   1
 Largest concise Abelian subgroup C1      NOp   1
                         Standard orientation:                         
 ---------------------------------------------------------------------
 Center     Atomic      Atomic             Coordinates (Angstroms)
 Number     Number       Type             X           Y           Z
 ---------------------------------------------------------------------
      1          6           0       -4.365153   -0.963732    0.312780
      2          1           0       -5.266434   -1.572430    0.381069
      3          1           0       -3.651717   -1.478341   -0.335149
      4          1           0        2.345719   -2.209106   -0.954378
      5          1           0       -4.652844    0.004666   -0.106375
      6          1           0       -3.962421   -0.852666    1.323290
      7          6           0        1.642789    0.315225   -0.985286
      8          6           0        0.409959    1.183389   -0.676579
      9          6           0       -0.769091    0.256317   -0.421827
     10          7           0        0.626924    2.019113    0.519742
     11          8           0       -0.728948   -0.953451   -0.628423
     12          8           0       -1.826467    0.929154    0.063073
     13          6           0        1.946937   -0.622555    0.147066
     14          1           0        2.518192    0.952680   -1.157263
     15          1           0        1.458909   -0.259905   -1.895126
     16          1           0        0.171395    1.779426   -1.567497
     17          1           0        1.460554    0.763674    1.487218
     18          1           0       -0.253349    2.314888    0.939950
     19          1           0       -2.631380    0.382451    0.210025
     20          7           0        1.841564   -0.211145    1.372731
     21          8           0        2.376388   -1.857588   -0.043577
     22          1           0        1.225284    2.823593    0.346523
     23          1           0        2.198233   -1.261503    2.694895
 ---------------------------------------------------------------------
 Rotational constants (GHZ):      1.7803650      0.7140813      0.6050955
 Leave Link  202 at Thu Mar 12 19:10:14 2020, MaxMem=    33554432 cpu:         0.0
 (Enter /usr/local/gaussian09d01/g09/l301.exe)
 Standard basis: 6-31G (6D, 7F)
 Ernie: Thresh=  0.10000D-02 Tol=  0.10000D-05 Strict=F.
 There are   116 symmetry adapted cartesian basis functions of A   symmetry.
 There are   116 symmetry adapted basis functions of A   symmetry.
   116 basis functions,   272 primitive gaussians,   116 cartesian basis functions
    40 alpha electrons       40 beta electrons
       nuclear repulsion energy       583.5029865040 Hartrees.
 IExCor= 4336 DFT=T Ex+Corr=M062X ExCW=0 ScaHFX=  0.540000
 ScaDFX=  1.000000  1.000000  1.000000  1.000000 ScalE2=  1.000000  1.000000
 IRadAn=      0 IRanWt=     -1 IRanGd=            0 ICorTp=0 IEmpDi=  4
 NAtoms=   23 NActive=   23 NUniq=   23 SFac= 1.00D+00 NAtFMM=   60 NAOKFM=F Big=F
 Integral buffers will be    131072 words long.
 Raffenetti 2 integral format.
 Two-electron integral symmetry is turned on.
 Leave Link  301 at Thu Mar 12 19:10:14 2020, MaxMem=    33554432 cpu:         0.0
 (Enter /usr/local/gaussian09d01/g09/l302.exe)
 NPDir=0 NMtPBC=     1 NCelOv=     1 NCel=       1 NClECP=     1 NCelD=      1
         NCelK=      1 NCelE2=     1 NClLst=     1 CellRange=     0.0.
 One-electron integrals computed using PRISM.
 NBasis=   116 RedAO= T EigKep=  3.61D-03  NBF=   116
 NBsUse=   116 1.00D-06 EigRej= -1.00D+00 NBFU=   116
 Precomputing XC quadrature grid using
 IXCGrd= 4 IRadAn=           0 IRanWt=          -1 IRanGd=           0 AccXCQ= 0.00D+00.
 Generated NRdTot=       0 NPtTot=           0 NUsed=           0 NTot=          32
 NSgBfM=   115   115   115   115   115 MxSgAt=    23 MxSgA2=    23.
 Leave Link  302 at Thu Mar 12 19:10:14 2020, MaxMem=    33554432 cpu:         0.3
 (Enter /usr/local/gaussian09d01/g09/l303.exe)
 DipDrv:  MaxL=1.
 Leave Link  303 at Thu Mar 12 19:10:14 2020, MaxMem=    33554432 cpu:         0.0
 (Enter /usr/local/gaussian09d01/g09/l401.exe)
 ExpMin= 1.61D-01 ExpMax= 5.48D+03 ExpMxC= 8.25D+02 IAcc=1 IRadAn=         1 AccDes= 0.00D+00
 Harris functional with IExCor= 1009 and IRadAn=       1 diagonalized for initial guess.
 HarFok:  IExCor= 1009 AccDes= 0.00D+00 IRadAn=         1 IDoV= 1 UseB2=F ITyADJ=14
 ICtDFT=  3500011 ScaDFX=  1.000000  1.000000  1.000000  1.000000
 FoFCou: FMM=F IPFlag=           0 FMFlag=      100000 FMFlg1=           0
         NFxFlg=           0 DoJE=T BraDBF=F KetDBF=T FulRan=T
         wScrn=  0.000000 ICntrl=     500 IOpCl=  0 I1Cent=   200000004 NGrid=           0
         NMat0=    1 NMatS0=      1 NMatT0=    0 NMatD0=    1 NMtDS0=    0 NMtDT0=    0
 Petite list used in FoFCou.
 Harris En= -532.632723886735    
 JPrj=0 DoOrth=F DoCkMO=F.
 Leave Link  401 at Thu Mar 12 19:10:15 2020, MaxMem=    33554432 cpu:         0.8
 (Enter /usr/local/gaussian09d01/g09/l502.exe)
 Closed shell SCF:
 Using DIIS extrapolation, IDIIS=  1040.
 Integral symmetry usage will be decided dynamically.
 Keep R1 ints in memory in canonical form, NReq=24030401.
 IVT=       60528 IEndB=       60528 NGot=    33554432 MDV=    10465614
 LenX=    10465614 LenY=    10451717
 Requested convergence on RMS density matrix=1.00D-08 within 128 cycles.
 Requested convergence on MAX density matrix=1.00D-06.
 Requested convergence on             energy=1.00D-06.
 No special actions if energy rises.
 FoFCou: FMM=F IPFlag=           0 FMFlag=           0 FMFlg1=           0
         NFxFlg=           0 DoJE=F BraDBF=F KetDBF=F FulRan=T
         wScrn=  0.000000 ICntrl=     600 IOpCl=  0 I1Cent=           0 NGrid=           0
         NMat0=    1 NMatS0=   6786 NMatT0=    0 NMatD0=    1 NMtDS0=    0 NMtDT0=    0
 Symmetry not used in FoFCou.
 Integral accuracy reduced to 1.0D-05 until final iterations.

 Cycle   1  Pass 0  IDiag  1:
 E= -532.513544603428    
 DIIS: error= 5.92D-02 at cycle   1 NSaved=   1.
 NSaved= 1 IEnMin= 1 EnMin= -532.513544603428     IErMin= 1 ErrMin= 5.92D-02
 ErrMax= 5.92D-02  0.00D+00 EMaxC= 1.00D-01 BMatC= 3.18D-01 BMatP= 3.18D-01
 IDIUse=3 WtCom= 4.08D-01 WtEn= 5.92D-01
 Coeff-Com:  0.100D+01
 Coeff-En:   0.100D+01
 Coeff:      0.100D+01
 Gap=     0.149 Goal=   None    Shift=    0.000
 GapD=    0.149 DampG=1.000 DampE=0.500 DampFc=0.5000 IDamp=-1.
 Damping current iteration by 5.00D-01
 RMSDP=8.57D-03 MaxDP=1.64D-01              OVMax= 1.79D-01

 Cycle   2  Pass 0  IDiag  1:
 E= -532.642318776039     Delta-E=       -0.128774172611 Rises=F Damp=T
 DIIS: error= 9.93D-03 at cycle   2 NSaved=   2.
 NSaved= 2 IEnMin= 2 EnMin= -532.642318776039     IErMin= 2 ErrMin= 9.93D-03
 ErrMax= 9.93D-03  0.00D+00 EMaxC= 1.00D-01 BMatC= 1.99D-02 BMatP= 3.18D-01
 IDIUse=3 WtCom= 9.01D-01 WtEn= 9.93D-02
 Coeff-Com:  0.482D-01 0.952D+00
 Coeff-En:   0.644D-01 0.936D+00
 Coeff:      0.498D-01 0.950D+00
 Gap=     0.263 Goal=   None    Shift=    0.000
 RMSDP=2.19D-03 MaxDP=3.01D-02 DE=-1.29D-01 OVMax= 1.10D-01

 Cycle   3  Pass 0  IDiag  1:
 E= -532.781648971640     Delta-E=       -0.139330195601 Rises=F Damp=F
 DIIS: error= 1.21D-02 at cycle   3 NSaved=   3.
 NSaved= 3 IEnMin= 3 EnMin= -532.781648971640     IErMin= 2 ErrMin= 9.93D-03
 ErrMax= 1.21D-02  0.00D+00 EMaxC= 1.00D-01 BMatC= 1.48D-02 BMatP= 1.99D-02
 IDIUse=3 WtCom= 8.79D-01 WtEn= 1.21D-01
 Coeff-Com: -0.149D-01 0.460D+00 0.555D+00
 Coeff-En:   0.000D+00 0.000D+00 0.100D+01
 Coeff:     -0.131D-01 0.404D+00 0.609D+00
 Gap=     0.256 Goal=   None    Shift=    0.000
 RMSDP=1.34D-03 MaxDP=3.32D-02 DE=-1.39D-01 OVMax= 4.49D-02

 Cycle   4  Pass 0  IDiag  1:
 E= -532.791410092732     Delta-E=       -0.009761121092 Rises=F Damp=F
 DIIS: error= 7.81D-03 at cycle   4 NSaved=   4.
 NSaved= 4 IEnMin= 4 EnMin= -532.791410092732     IErMin= 4 ErrMin= 7.81D-03
 ErrMax= 7.81D-03  0.00D+00 EMaxC= 1.00D-01 BMatC= 3.69D-03 BMatP= 1.48D-02
 IDIUse=3 WtCom= 9.22D-01 WtEn= 7.81D-02
 Coeff-Com: -0.517D-02 0.276D-01 0.337D+00 0.640D+00
 Coeff-En:   0.000D+00 0.000D+00 0.194D+00 0.806D+00
 Coeff:     -0.476D-02 0.255D-01 0.326D+00 0.653D+00
 Gap=     0.254 Goal=   None    Shift=    0.000
 RMSDP=5.18D-04 MaxDP=1.07D-02 DE=-9.76D-03 OVMax= 1.39D-02

 Cycle   5  Pass 0  IDiag  1:
 E= -532.794105456280     Delta-E=       -0.002695363549 Rises=F Damp=F
 DIIS: error= 1.05D-03 at cycle   5 NSaved=   5.
 NSaved= 5 IEnMin= 5 EnMin= -532.794105456280     IErMin= 5 ErrMin= 1.05D-03
 ErrMax= 1.05D-03  0.00D+00 EMaxC= 1.00D-01 BMatC= 1.55D-04 BMatP= 3.69D-03
 IDIUse=3 WtCom= 9.90D-01 WtEn= 1.05D-02
 Coeff-Com: -0.865D-03-0.894D-02 0.143D+00 0.334D+00 0.533D+00
 Coeff-En:   0.000D+00 0.000D+00 0.000D+00 0.000D+00 0.100D+01
 Coeff:     -0.856D-03-0.885D-02 0.141D+00 0.330D+00 0.538D+00
 Gap=     0.252 Goal=   None    Shift=    0.000
 RMSDP=1.04D-04 MaxDP=2.01D-03 DE=-2.70D-03 OVMax= 3.19D-03

 Cycle   6  Pass 0  IDiag  1:
 E= -532.794237857619     Delta-E=       -0.000132401338 Rises=F Damp=F
 DIIS: error= 3.48D-04 at cycle   6 NSaved=   6.
 NSaved= 6 IEnMin= 6 EnMin= -532.794237857619     IErMin= 6 ErrMin= 3.48D-04
 ErrMax= 3.48D-04  0.00D+00 EMaxC= 1.00D-01 BMatC= 6.05D-06 BMatP= 1.55D-04
 IDIUse=3 WtCom= 9.97D-01 WtEn= 3.48D-03
 Coeff-Com:  0.419D-03-0.447D-02 0.255D-01 0.538D-01 0.178D+00 0.747D+00
 Coeff-En:   0.000D+00 0.000D+00 0.000D+00 0.000D+00 0.000D+00 0.100D+01
 Coeff:      0.418D-03-0.446D-02 0.254D-01 0.536D-01 0.177D+00 0.748D+00
 Gap=     0.252 Goal=   None    Shift=    0.000
 RMSDP=3.18D-05 MaxDP=4.81D-04 DE=-1.32D-04 OVMax= 6.38D-04

 Cycle   7  Pass 0  IDiag  1:
 E= -532.794242538201     Delta-E=       -0.000004680582 Rises=F Damp=F
 DIIS: error= 1.14D-04 at cycle   7 NSaved=   7.
 NSaved= 7 IEnMin= 7 EnMin= -532.794242538201     IErMin= 7 ErrMin= 1.14D-04
 ErrMax= 1.14D-04  0.00D+00 EMaxC= 1.00D-01 BMatC= 1.64D-06 BMatP= 6.05D-06
 IDIUse=3 WtCom= 9.99D-01 WtEn= 1.14D-03
 Coeff-Com:  0.458D-03-0.104D-02-0.116D-01-0.338D-01 0.656D-02 0.407D+00
 Coeff-Com:  0.633D+00
 Coeff-En:   0.000D+00 0.000D+00 0.000D+00 0.000D+00 0.000D+00 0.000D+00
 Coeff-En:   0.100D+01
 Coeff:      0.457D-03-0.104D-02-0.116D-01-0.338D-01 0.656D-02 0.406D+00
 Coeff:      0.633D+00
 Gap=     0.252 Goal=   None    Shift=    0.000
 RMSDP=1.45D-05 MaxDP=3.50D-04 DE=-4.68D-06 OVMax= 4.64D-04

 Cycle   8  Pass 0  IDiag  1:
 E= -532.794244140822     Delta-E=       -0.000001602622 Rises=F Damp=F
 DIIS: error= 4.77D-05 at cycle   8 NSaved=   8.
 NSaved= 8 IEnMin= 8 EnMin= -532.794244140822     IErMin= 8 ErrMin= 4.77D-05
 ErrMax= 4.77D-05  0.00D+00 EMaxC= 1.00D-01 BMatC= 2.16D-07 BMatP= 1.64D-06
 IDIUse=1 WtCom= 1.00D+00 WtEn= 0.00D+00
 Coeff-Com:  0.161D-03 0.890D-04-0.870D-02-0.237D-01-0.194D-01 0.753D-01
 Coeff-Com:  0.321D+00 0.655D+00
 Coeff:      0.161D-03 0.890D-04-0.870D-02-0.237D-01-0.194D-01 0.753D-01
 Coeff:      0.321D+00 0.655D+00
 Gap=     0.252 Goal=   None    Shift=    0.000
 RMSDP=6.25D-06 MaxDP=1.29D-04 DE=-1.60D-06 OVMax= 1.37D-04

 Initial convergence to 1.0D-05 achieved.  Increase integral accuracy.
 Cycle   9  Pass 1  IDiag  1:
 E= -532.794413989600     Delta-E=       -0.000169848777 Rises=F Damp=F
 DIIS: error= 1.33D-04 at cycle   1 NSaved=   1.
 NSaved= 1 IEnMin= 1 EnMin= -532.794413989600     IErMin= 1 ErrMin= 1.33D-04
 ErrMax= 1.33D-04  0.00D+00 EMaxC= 1.00D-01 BMatC= 1.86D-06 BMatP= 1.86D-06
 IDIUse=3 WtCom= 9.99D-01 WtEn= 1.33D-03
 Coeff-Com:  0.100D+01
 Coeff-En:   0.100D+01
 Coeff:      0.100D+01
 Gap=     0.252 Goal=   None    Shift=    0.000
 RMSDP=6.25D-06 MaxDP=1.29D-04 DE=-1.70D-04 OVMax= 1.92D-04

 Cycle  10  Pass 1  IDiag  1:
 E= -532.794415591684     Delta-E=       -0.000001602084 Rises=F Damp=F
 DIIS: error= 7.53D-05 at cycle   2 NSaved=   2.
 NSaved= 2 IEnMin= 2 EnMin= -532.794415591684     IErMin= 2 ErrMin= 7.53D-05
 ErrMax= 7.53D-05  0.00D+00 EMaxC= 1.00D-01 BMatC= 4.50D-07 BMatP= 1.86D-06
 IDIUse=1 WtCom= 1.00D+00 WtEn= 0.00D+00
 Coeff-Com:  0.263D+00 0.737D+00
 Coeff:      0.263D+00 0.737D+00
 Gap=     0.252 Goal=   None    Shift=    0.000
 RMSDP=8.21D-06 MaxDP=1.45D-04 DE=-1.60D-06 OVMax= 1.78D-04

 Cycle  11  Pass 1  IDiag  1:
 E= -532.794415858103     Delta-E=       -0.000000266420 Rises=F Damp=F
 DIIS: error= 3.57D-05 at cycle   3 NSaved=   3.
 NSaved= 3 IEnMin= 3 EnMin= -532.794415858103     IErMin= 3 ErrMin= 3.57D-05
 ErrMax= 3.57D-05  0.00D+00 EMaxC= 1.00D-01 BMatC= 2.08D-07 BMatP= 4.50D-07
 IDIUse=1 WtCom= 1.00D+00 WtEn= 0.00D+00
 Coeff-Com: -0.213D-01 0.396D+00 0.626D+00
 Coeff:     -0.213D-01 0.396D+00 0.626D+00
 Gap=     0.252 Goal=   None    Shift=    0.000
 RMSDP=4.30D-06 MaxDP=9.84D-05 DE=-2.66D-07 OVMax= 1.14D-04

 Cycle  12  Pass 1  IDiag  1:
 E= -532.794416027165     Delta-E=       -0.000000169062 Rises=F Damp=F
 DIIS: error= 1.33D-05 at cycle   4 NSaved=   4.
 NSaved= 4 IEnMin= 4 EnMin= -532.794416027165     IErMin= 4 ErrMin= 1.33D-05
 ErrMax= 1.33D-05  0.00D+00 EMaxC= 1.00D-01 BMatC= 2.41D-08 BMatP= 2.08D-07
 IDIUse=1 WtCom= 1.00D+00 WtEn= 0.00D+00
 Coeff-Com: -0.310D-01 0.176D+00 0.363D+00 0.491D+00
 Coeff:     -0.310D-01 0.176D+00 0.363D+00 0.491D+00
 Gap=     0.252 Goal=   None    Shift=    0.000
 RMSDP=1.10D-06 MaxDP=3.08D-05 DE=-1.69D-07 OVMax= 3.93D-05

 Cycle  13  Pass 1  IDiag  1:
 E= -532.794416048547     Delta-E=       -0.000000021382 Rises=F Damp=F
 DIIS: error= 2.46D-06 at cycle   5 NSaved=   5.
 NSaved= 5 IEnMin= 5 EnMin= -532.794416048547     IErMin= 5 ErrMin= 2.46D-06
 ErrMax= 2.46D-06  0.00D+00 EMaxC= 1.00D-01 BMatC= 4.50D-10 BMatP= 2.41D-08
 IDIUse=1 WtCom= 1.00D+00 WtEn= 0.00D+00
 Coeff-Com: -0.905D-02 0.256D-01 0.723D-01 0.144D+00 0.767D+00
 Coeff:     -0.905D-02 0.256D-01 0.723D-01 0.144D+00 0.767D+00
 Gap=     0.252 Goal=   None    Shift=    0.000
 RMSDP=2.85D-07 MaxDP=5.47D-06 DE=-2.14D-08 OVMax= 5.89D-06

 Cycle  14  Pass 1  IDiag  1:
 E= -532.794416048891     Delta-E=       -0.000000000344 Rises=F Damp=F
 DIIS: error= 9.85D-07 at cycle   6 NSaved=   6.
 NSaved= 6 IEnMin= 6 EnMin= -532.794416048891     IErMin= 6 ErrMin= 9.85D-07
 ErrMax= 9.85D-07  0.00D+00 EMaxC= 1.00D-01 BMatC= 1.61D-10 BMatP= 4.50D-10
 IDIUse=1 WtCom= 1.00D+00 WtEn= 0.00D+00
 Coeff-Com:  0.580D-03-0.140D-01-0.192D-01-0.426D-02 0.399D+00 0.638D+00
 Coeff:      0.580D-03-0.140D-01-0.192D-01-0.426D-02 0.399D+00 0.638D+00
 Gap=     0.252 Goal=   None    Shift=    0.000
 RMSDP=1.06D-07 MaxDP=2.47D-06 DE=-3.44D-10 OVMax= 3.67D-06

 Cycle  15  Pass 1  IDiag  1:
 E= -532.794416049034     Delta-E=       -0.000000000143 Rises=F Damp=F
 DIIS: error= 4.04D-07 at cycle   7 NSaved=   7.
 NSaved= 7 IEnMin= 7 EnMin= -532.794416049034     IErMin= 7 ErrMin= 4.04D-07
 ErrMax= 4.04D-07  0.00D+00 EMaxC= 1.00D-01 BMatC= 6.45D-12 BMatP= 1.61D-10
 IDIUse=1 WtCom= 1.00D+00 WtEn= 0.00D+00
 Coeff-Com:  0.651D-03-0.568D-02-0.107D-01-0.897D-02 0.714D-01 0.206D+00
 Coeff-Com:  0.747D+00
 Coeff:      0.651D-03-0.568D-02-0.107D-01-0.897D-02 0.714D-01 0.206D+00
 Coeff:      0.747D+00
 Gap=     0.252 Goal=   None    Shift=    0.000
 RMSDP=4.76D-08 MaxDP=1.08D-06 DE=-1.43D-10 OVMax= 1.12D-06

 Cycle  16  Pass 1  IDiag  1:
 E= -532.794416049039     Delta-E=       -0.000000000005 Rises=F Damp=F
 DIIS: error= 1.51D-07 at cycle   8 NSaved=   8.
 NSaved= 8 IEnMin= 8 EnMin= -532.794416049039     IErMin= 8 ErrMin= 1.51D-07
 ErrMax= 1.51D-07  0.00D+00 EMaxC= 1.00D-01 BMatC= 2.81D-12 BMatP= 6.45D-12
 IDIUse=1 WtCom= 1.00D+00 WtEn= 0.00D+00
 Coeff-Com:  0.291D-03-0.905D-03-0.306D-02-0.456D-02-0.314D-01 0.113D-01
 Coeff-Com:  0.450D+00 0.578D+00
 Coeff:      0.291D-03-0.905D-03-0.306D-02-0.456D-02-0.314D-01 0.113D-01
 Coeff:      0.450D+00 0.578D+00
 Gap=     0.252 Goal=   None    Shift=    0.000
 RMSDP=1.47D-08 MaxDP=5.22D-07 DE=-5.23D-12 OVMax= 6.50D-07

 Cycle  17  Pass 1  IDiag  1:
 E= -532.794416049038     Delta-E=        0.000000000000 Rises=F Damp=F
 DIIS: error= 4.82D-08 at cycle   9 NSaved=   9.
 NSaved= 9 IEnMin= 8 EnMin= -532.794416049039     IErMin= 9 ErrMin= 4.82D-08
 ErrMax= 4.82D-08  0.00D+00 EMaxC= 1.00D-01 BMatC= 1.24D-13 BMatP= 2.81D-12
 IDIUse=1 WtCom= 1.00D+00 WtEn= 0.00D+00
 Coeff-Com: -0.286D-05 0.312D-03 0.515D-03-0.112D-03-0.122D-01-0.151D-01
 Coeff-Com: -0.159D-01 0.142D+00 0.900D+00
 Coeff:     -0.286D-05 0.312D-03 0.515D-03-0.112D-03-0.122D-01-0.151D-01
 Coeff:     -0.159D-01 0.142D+00 0.900D+00
 Gap=     0.252 Goal=   None    Shift=    0.000
 RMSDP=6.17D-09 MaxDP=1.26D-07 DE= 4.55D-13 OVMax= 2.46D-07

 SCF Done:  E(RM062X) =  -532.794416049     A.U. after   17 cycles
            NFock= 17  Conv=0.62D-08     -V/T= 2.0061
 KE= 5.295430716954D+02 PE=-2.399251163205D+03 EE= 7.534106889564D+02
 Leave Link  502 at Thu Mar 12 19:11:09 2020, MaxMem=    33554432 cpu:        54.1
 (Enter /usr/local/gaussian09d01/g09/l601.exe)
 Copying SCF densities to generalized density rwf, IOpCl= 0 IROHF=0.

 **********************************************************************

            Population analysis using the SCF density.

 **********************************************************************

 Orbital symmetries:
       Occupied  (A) (A) (A) (A) (A) (A) (A) (A) (A) (A) (A) (A)
                 (A) (A) (A) (A) (A) (A) (A) (A) (A) (A) (A) (A)
                 (A) (A) (A) (A) (A) (A) (A) (A) (A) (A) (A) (A)
                 (A) (A) (A) (A)
       Virtual   (A) (A) (A) (A) (A) (A) (A) (A) (A) (A) (A) (A)
                 (A) (A) (A) (A) (A) (A) (A) (A) (A) (A) (A) (A)
                 (A) (A) (A) (A) (A) (A) (A) (A) (A) (A) (A) (A)
                 (A) (A) (A) (A) (A) (A) (A) (A) (A) (A) (A) (A)
                 (A) (A) (A) (A) (A) (A) (A) (A) (A) (A) (A) (A)
                 (A) (A) (A) (A) (A) (A) (A) (A) (A) (A) (A) (A)
                 (A) (A) (A) (A)
 The electronic state is 1-A.
 Alpha  occ. eigenvalues --  -19.87131 -19.83746 -19.80144 -14.99761 -14.92920
 Alpha  occ. eigenvalues --  -10.87975 -10.85814 -10.77571 -10.75034 -10.62952
 Alpha  occ. eigenvalues --   -1.41468  -1.39910  -1.30887  -1.22742  -1.17741
 Alpha  occ. eigenvalues --   -1.05308  -0.95958  -0.91674  -0.89848  -0.85498
 Alpha  occ. eigenvalues --   -0.79188  -0.77757  -0.75710  -0.73298  -0.72670
 Alpha  occ. eigenvalues --   -0.71686  -0.68893  -0.66710  -0.64773  -0.64061
 Alpha  occ. eigenvalues --   -0.61532  -0.60661  -0.60062  -0.56964  -0.56742
 Alpha  occ. eigenvalues --   -0.55801  -0.54632  -0.53462  -0.51200  -0.48819
 Alpha virt. eigenvalues --   -0.23572  -0.14610  -0.11858  -0.05928  -0.02275
 Alpha virt. eigenvalues --   -0.00299   0.01390   0.02187   0.05028   0.05488
 Alpha virt. eigenvalues --    0.07168   0.07367   0.08033   0.11119   0.11344
 Alpha virt. eigenvalues --    0.11520   0.12562   0.13472   0.16466   0.19151
 Alpha virt. eigenvalues --    0.21686   0.25091   0.28853   0.39555   0.42797
 Alpha virt. eigenvalues --    0.44117   0.46343   0.47390   0.48299   0.48467
 Alpha virt. eigenvalues --    0.50357   0.52332   0.52501   0.56045   0.58606
 Alpha virt. eigenvalues --    0.59102   0.60548   0.61764   0.64488   0.65111
 Alpha virt. eigenvalues --    0.68048   0.69154   0.71444   0.75361   0.75754
 Alpha virt. eigenvalues --    0.77483   0.79178   0.81371   0.83986   0.84312
 Alpha virt. eigenvalues --    0.86092   0.87631   0.88194   0.88447   0.91500
 Alpha virt. eigenvalues --    0.92276   0.92536   0.94709   0.95275   0.96916
 Alpha virt. eigenvalues --    1.02647   1.04231   1.06461   1.09975   1.12608
 Alpha virt. eigenvalues --    1.12808   1.18860   1.21696   1.29453   1.34510
 Alpha virt. eigenvalues --    1.41255   1.52956   1.62735   1.74910   1.76925
 Alpha virt. eigenvalues --    1.86891
          Condensed to atoms (all electrons):
               1          2          3          4          5          6
     1  C    5.189048   0.375398   0.371787   0.000000   0.370298   0.370816
     2  H    0.375398   0.470192  -0.017961   0.000000  -0.019879  -0.020356
     3  H    0.371787  -0.017961   0.520114   0.000000  -0.029464  -0.030077
     4  H    0.000000   0.000000   0.000000   0.297905   0.000000   0.000000
     5  H    0.370298  -0.019879  -0.029464   0.000000   0.538087  -0.032239
     6  H    0.370816  -0.020356  -0.030077   0.000000  -0.032239   0.545847
     7  C    0.000000   0.000000  -0.000001  -0.005497   0.000000   0.000000
     8  C   -0.000005   0.000001   0.000084   0.000150  -0.000011  -0.000007
     9  C    0.000255   0.000038   0.001492   0.000043  -0.000152  -0.000130
    10  N    0.000000   0.000000  -0.000001   0.000027   0.000000   0.000000
    11  O   -0.001321   0.000015   0.003320   0.000361   0.000043   0.000016
    12  O   -0.005209   0.000175  -0.001628   0.000000  -0.000759  -0.000630
    13  C    0.000000   0.000000   0.000000  -0.015415   0.000000   0.000000
    14  H    0.000000   0.000000   0.000000   0.000003   0.000000   0.000000
    15  H    0.000000   0.000000   0.000000   0.003546   0.000000   0.000000
    16  H    0.000001   0.000000  -0.000002   0.000004   0.000000   0.000000
    17  H    0.000000   0.000000   0.000000  -0.000049   0.000000   0.000000
    18  H   -0.000001   0.000000   0.000000   0.000000   0.000000   0.000000
    19  H    0.026803  -0.000933   0.002070   0.000000   0.005159   0.004683
    20  N    0.000000   0.000000   0.000000   0.005603   0.000000   0.000000
    21  O    0.000000   0.000000   0.000000   0.255590   0.000000   0.000000
    22  H    0.000000   0.000000   0.000000  -0.000001   0.000000   0.000000
    23  H    0.000000   0.000000   0.000000   0.000072   0.000000   0.000000
               7          8          9         10         11         12
     1  C    0.000000  -0.000005   0.000255   0.000000  -0.001321  -0.005209
     2  H    0.000000   0.000001   0.000038   0.000000   0.000015   0.000175
     3  H   -0.000001   0.000084   0.001492  -0.000001   0.003320  -0.001628
     4  H   -0.005497   0.000150   0.000043   0.000027   0.000361   0.000000
     5  H    0.000000  -0.000011  -0.000152   0.000000   0.000043  -0.000759
     6  H    0.000000  -0.000007  -0.000130   0.000000   0.000016  -0.000630
     7  C    5.432660   0.220818  -0.047803  -0.076956   0.007954   0.005342
     8  C    0.220818   5.570807   0.151819   0.192086  -0.124159  -0.148580
     9  C   -0.047803   0.151819   4.752906  -0.049242   0.496889   0.193710
    10  N   -0.076956   0.192086  -0.049242   7.093756   0.002188   0.001849
    11  O    0.007954  -0.124159   0.496889   0.002188   8.122034  -0.108496
    12  O    0.005342  -0.148580   0.193710   0.001849  -0.108496   8.420764
    13  C    0.260988  -0.017584  -0.007879  -0.001099   0.009816  -0.000532
    14  H    0.376764  -0.027829   0.005627  -0.001432   0.000411  -0.000026
    15  H    0.366250  -0.027916  -0.002108   0.003872   0.004763   0.000132
    16  H   -0.043645   0.385044  -0.026937  -0.036017   0.001055   0.000893
    17  H   -0.007587  -0.010857  -0.000759   0.087893   0.000204  -0.000055
    18  H    0.004875  -0.034168  -0.007494   0.320210   0.000226   0.013330
    19  H   -0.000158   0.005463  -0.018685  -0.000119  -0.000588   0.237098
    20  N   -0.102025   0.002364   0.000238  -0.070856  -0.003441   0.000048
    21  O   -0.063059   0.002539  -0.000508  -0.000138  -0.001431  -0.000001
    22  H   -0.000877  -0.028936   0.004128   0.321536  -0.000080  -0.000006
    23  H    0.001486  -0.000045  -0.000027   0.000676   0.000005   0.000000
              13         14         15         16         17         18
     1  C    0.000000   0.000000   0.000000   0.000001   0.000000  -0.000001
     2  H    0.000000   0.000000   0.000000   0.000000   0.000000   0.000000
     3  H    0.000000   0.000000   0.000000  -0.000002   0.000000   0.000000
     4  H   -0.015415   0.000003   0.003546   0.000004  -0.000049   0.000000
     5  H    0.000000   0.000000   0.000000   0.000000   0.000000   0.000000
     6  H    0.000000   0.000000   0.000000   0.000000   0.000000   0.000000
     7  C    0.260988   0.376764   0.366250  -0.043645  -0.007587   0.004875
     8  C   -0.017584  -0.027829  -0.027916   0.385044  -0.010857  -0.034168
     9  C   -0.007879   0.005627  -0.002108  -0.026937  -0.000759  -0.007494
    10  N   -0.001099  -0.001432   0.003872  -0.036017   0.087893   0.320210
    11  O    0.009816   0.000411   0.004763   0.001055   0.000204   0.000226
    12  O   -0.000532  -0.000026   0.000132   0.000893  -0.000055   0.013330
    13  C    4.687661  -0.035999  -0.031857   0.004419  -0.030583   0.000136
    14  H   -0.035999   0.445275  -0.016676  -0.003016  -0.000374  -0.000057
    15  H   -0.031857  -0.016676   0.468583  -0.000672   0.000299  -0.000100
    16  H    0.004419  -0.003016  -0.000672   0.462572   0.000987   0.001002
    17  H   -0.030583  -0.000374   0.000299   0.000987   0.279057  -0.000383
    18  H    0.000136  -0.000057  -0.000100   0.001002  -0.000383   0.337538
    19  H   -0.000012   0.000002  -0.000003  -0.000246  -0.000020  -0.000266
    20  N    0.308796  -0.001740   0.004422  -0.000251   0.254029   0.000302
    21  O    0.305657   0.001051  -0.002637  -0.000066   0.001354   0.000002
    22  H   -0.000311   0.001621  -0.000073  -0.003709  -0.001471  -0.020879
    23  H   -0.003951  -0.000036  -0.000030   0.000002   0.000912  -0.000005
              19         20         21         22         23
     1  C    0.026803   0.000000   0.000000   0.000000   0.000000
     2  H   -0.000933   0.000000   0.000000   0.000000   0.000000
     3  H    0.002070   0.000000   0.000000   0.000000   0.000000
     4  H    0.000000   0.005603   0.255590  -0.000001   0.000072
     5  H    0.005159   0.000000   0.000000   0.000000   0.000000
     6  H    0.004683   0.000000   0.000000   0.000000   0.000000
     7  C   -0.000158  -0.102025  -0.063059  -0.000877   0.001486
     8  C    0.005463   0.002364   0.002539  -0.028936  -0.000045
     9  C   -0.018685   0.000238  -0.000508   0.004128  -0.000027
    10  N   -0.000119  -0.070856  -0.000138   0.321536   0.000676
    11  O   -0.000588  -0.003441  -0.001431  -0.000080   0.000005
    12  O    0.237098   0.000048  -0.000001  -0.000006   0.000000
    13  C   -0.000012   0.308796   0.305657  -0.000311  -0.003951
    14  H    0.000002  -0.001740   0.001051   0.001621  -0.000036
    15  H   -0.000003   0.004422  -0.002637  -0.000073  -0.000030
    16  H   -0.000246  -0.000251  -0.000066  -0.003709   0.000002
    17  H   -0.000020   0.254029   0.001354  -0.001471   0.000912
    18  H   -0.000266   0.000302   0.000002  -0.020879  -0.000005
    19  H    0.275552   0.000011   0.000000   0.000017   0.000000
    20  N    0.000011   7.094065  -0.109823   0.000909   0.204007
    21  O    0.000000  -0.109823   8.162953   0.000002  -0.001981
    22  H    0.000017   0.000909   0.000002   0.369658  -0.000009
    23  H    0.000000   0.204007  -0.001981  -0.000009   0.404408
 Mulliken charges:
               1
     1  C   -0.697870
     2  H    0.213310
     3  H    0.180267
     4  H    0.457658
     5  H    0.168917
     6  H    0.162076
     7  C   -0.329530
     8  C   -0.111077
     9  C    0.554580
    10  N   -0.788233
    11  O   -0.409784
    12  O   -0.607419
    13  C    0.567750
    14  H    0.256429
    15  H    0.230205
    16  H    0.258581
    17  H    0.427402
    18  H    0.385731
    19  H    0.464173
    20  N   -0.586659
    21  O   -0.549503
    22  H    0.358480
    23  H    0.394516
 Sum of Mulliken charges =   1.00000
 Mulliken charges with hydrogens summed into heavy atoms:
               1
     1  C    0.026700
     7  C    0.157105
     8  C    0.147504
     9  C    0.554580
    10  N   -0.044022
    11  O   -0.409784
    12  O   -0.143246
    13  C    0.567750
    20  N    0.235258
    21  O   -0.091846
 Electronic spatial extent (au):  <R**2>=           2005.4988
 Charge=              1.0000 electrons
 Dipole moment (field-independent basis, Debye):
    X=              4.8799    Y=              1.5000    Z=              0.8775  Tot=              5.1801
 Quadrupole moment (field-independent basis, Debye-Ang):
   XX=            -33.5049   YY=            -47.1604   ZZ=            -43.3727
   XY=             -2.2313   XZ=             -0.6985   YZ=             -1.9686
 Traceless Quadrupole moment (field-independent basis, Debye-Ang):
   XX=              7.8411   YY=             -5.8144   ZZ=             -2.0267
   XY=             -2.2313   XZ=             -0.6985   YZ=             -1.9686
 Octapole moment (field-independent basis, Debye-Ang**2):
  XXX=            -21.0485  YYY=             15.7850  ZZZ=             27.9027  XYY=             25.7480
  XXY=            -20.7802  XXZ=              5.5428  XZZ=             35.3642  YZZ=            -17.0181
  YYZ=              0.3317  XYZ=             -0.8089
 Hexadecapole moment (field-independent basis, Debye-Ang**3):
 XXXX=          -1446.0422 YYYY=           -434.3038 ZZZZ=           -154.3532 XXXY=             18.9070
 XXXZ=            -16.7548 YYYX=            -16.5434 YYYZ=             31.7296 ZZZX=             66.8910
 ZZZY=            -38.8929 XXYY=           -326.8468 XXZZ=           -264.2856 YYZZ=            -92.9763
 XXYZ=             -6.9972 YYXZ=            -12.0476 ZZXY=            -57.2562
 N-N= 5.835029865040D+02 E-N=-2.399251159019D+03  KE= 5.295430716954D+02
 No NMR shielding tensors so no spin-rotation constants.
 Leave Link  601 at Thu Mar 12 19:11:09 2020, MaxMem=    33554432 cpu:         0.1
 (Enter /usr/local/gaussian09d01/g09/l9999.exe)
 1\1\GINC-KARURA\SP\RM062X\6-31G\C5H13N2O3(1+)\RTAKE\12-Mar-2020\0\\#p 
 M062X/6-31G\\chk calc\\1,1\C,0,3.824482709,-1.14219544,1.17225369\H,0,
 4.799113079,-1.62961423,1.173808707\H,0,3.053614027,-1.916312598,1.160
 804944\H,0,-2.540416453,-2.844981592,-1.014302773\H,0,3.75960642,-0.53
 291794,2.07824618\H,0,3.765323683,-0.52154146,0.273951194\C,0,-2.40154
 2122,-0.705499021,0.492562549\C,0,-1.33365594,0.193207044,1.141270536\
 C,0,0.021967089,-0.47033751,0.950186539\N,0,-1.303304814,1.529148773,0
 .515945207\O,0,0.155929117,-1.611462803,0.51692019\O,0,1.024922388,0.3
 53392554,1.298656\C,0,-2.121889445,-0.918337302,-0.967112723\H,0,-3.39
 229932,-0.247402335,0.596496855\H,0,-2.419176945,-1.669900059,1.004436
 439\H,0,-1.526304416,0.239474424,2.221387894\H,0,-1.503902114,0.960750
 702,-1.170400229\H,0,-0.410560182,1.997532273,0.666150752\H,0,1.924402
 159,-0.039925506,1.230818645\N,0,-1.700457396,0.069239192,-1.694919761
 \O,0,-2.336854815,-2.071648312,-1.575178364\H,0,-2.071900591,2.1285565
 43,0.807834339\H,0,-1.384174672,-0.141135729,-3.378454737\\Version=ES6
 4L-G09RevD.01\State=1-A\HF=-532.794416\RMSD=6.173e-09\Dipole=-1.773966
 2,0.6891672,-0.7290786\Quadrupole=4.5318113,-4.8724565,0.3406451,1.750
 4406,2.7133732,0.1073945\PG=C01 [X(C5H13N2O3)]\\@


 THE REAL VOYAGE OF DISCOVERY CONSISTS NOT IN SEEKING NEW LANDSCAPES 
 BUT IN HAVING NEW EYES.
                                                    -- MARCEL PROUST
 Job cpu time:       0 days  0 hours  0 minutes 55.5 seconds.
 File lengths (MBytes):  RWF=      7 Int=      0 D2E=      0 Chk=      2 Scr=      1
 Normal termination of Gaussian 09 at Thu Mar 12 19:11:09 2020.
