 Entering Gaussian System, Link 0=g09
 Input=./n20_h23_11.gjf
 Output=./n20_h23_11.log
 Initial command:
 /usr/local/gaussian09d01/g09/l1.exe "/scr/Gau-20124.inp" -scrdir="/scr/"
 Entering Link 1 = /usr/local/gaussian09d01/g09/l1.exe PID=     20125.
  
 Copyright (c) 1988,1990,1992,1993,1995,1998,2003,2009,2013,
            Gaussian, Inc.  All Rights Reserved.
  
 This is part of the Gaussian(R) 09 program.  It is based on
 the Gaussian(R) 03 system (copyright 2003, Gaussian, Inc.),
 the Gaussian(R) 98 system (copyright 1998, Gaussian, Inc.),
 the Gaussian(R) 94 system (copyright 1995, Gaussian, Inc.),
 the Gaussian 92(TM) system (copyright 1992, Gaussian, Inc.),
 the Gaussian 90(TM) system (copyright 1990, Gaussian, Inc.),
 the Gaussian 88(TM) system (copyright 1988, Gaussian, Inc.),
 the Gaussian 86(TM) system (copyright 1986, Carnegie Mellon
 University), and the Gaussian 82(TM) system (copyright 1983,
 Carnegie Mellon University). Gaussian is a federally registered
 trademark of Gaussian, Inc.
  
 This software contains proprietary and confidential information,
 including trade secrets, belonging to Gaussian, Inc.
  
 This software is provided under written license and may be
 used, copied, transmitted, or stored only in accord with that
 written license.
  
 The following legend is applicable only to US Government
 contracts under FAR:
  
                    RESTRICTED RIGHTS LEGEND
  
 Use, reproduction and disclosure by the US Government is
 subject to restrictions as set forth in subparagraphs (a)
 and (c) of the Commercial Computer Software - Restricted
 Rights clause in FAR 52.227-19.
  
 Gaussian, Inc.
 340 Quinnipiac St., Bldg. 40, Wallingford CT 06492
  
  
 ---------------------------------------------------------------
 Warning -- This program may not be used in any manner that
 competes with the business of Gaussian, Inc. or will provide
 assistance to any competitor of Gaussian, Inc.  The licensee
 of this program is prohibited from giving any competitor of
 Gaussian, Inc. access to this program.  By using this program,
 the user acknowledges that Gaussian, Inc. is engaged in the
 business of creating and licensing software in the field of
 computational chemistry and represents and warrants to the
 licensee that it is not a competitor of Gaussian, Inc. and that
 it will not use this program in any manner prohibited above.
 ---------------------------------------------------------------
  

 Cite this work as:
 Gaussian 09, Revision D.01,
 M. J. Frisch, G. W. Trucks, H. B. Schlegel, G. E. Scuseria, 
 M. A. Robb, J. R. Cheeseman, G. Scalmani, V. Barone, B. Mennucci, 
 G. A. Petersson, H. Nakatsuji, M. Caricato, X. Li, H. P. Hratchian, 
 A. F. Izmaylov, J. Bloino, G. Zheng, J. L. Sonnenberg, M. Hada, 
 M. Ehara, K. Toyota, R. Fukuda, J. Hasegawa, M. Ishida, T. Nakajima, 
 Y. Honda, O. Kitao, H. Nakai, T. Vreven, J. A. Montgomery, Jr., 
 J. E. Peralta, F. Ogliaro, M. Bearpark, J. J. Heyd, E. Brothers, 
 K. N. Kudin, V. N. Staroverov, T. Keith, R. Kobayashi, J. Normand, 
 K. Raghavachari, A. Rendell, J. C. Burant, S. S. Iyengar, J. Tomasi, 
 M. Cossi, N. Rega, J. M. Millam, M. Klene, J. E. Knox, J. B. Cross, 
 V. Bakken, C. Adamo, J. Jaramillo, R. Gomperts, R. E. Stratmann, 
 O. Yazyev, A. J. Austin, R. Cammi, C. Pomelli, J. W. Ochterski, 
 R. L. Martin, K. Morokuma, V. G. Zakrzewski, G. A. Voth, 
 P. Salvador, J. J. Dannenberg, S. Dapprich, A. D. Daniels, 
 O. Farkas, J. B. Foresman, J. V. Ortiz, J. Cioslowski, 
 and D. J. Fox, Gaussian, Inc., Wallingford CT, 2013.
 
 ******************************************
 Gaussian 09:  ES64L-G09RevD.01 24-Apr-2013
                12-Mar-2020 
 ******************************************
 --------------
 #p M062X/6-31G
 --------------
 1/38=1/1;
 2/12=2,17=6,18=5,40=1/2;
 3/5=1,6=6,11=2,16=1,25=1,30=1,74=-55/1,2,3;
 4//1;
 5/5=2,38=5/2;
 6/7=2,8=2,9=2,10=2,28=1/1;
 99/5=1,9=1/99;
 Leave Link    1 at Thu Mar 12 19:05:30 2020, MaxMem=           0 cpu:         0.0
 (Enter /usr/local/gaussian09d01/g09/l101.exe)
 --------
 chk calc
 --------
 Symbolic Z-matrix:
 Charge =  1 Multiplicity = 1
 C                     3.82448  -1.1422    1.17225 
 H                     4.79911  -1.62961   1.17381 
 H                     3.05361  -1.91631   1.1608 
 H                    -2.54042  -2.84498  -1.0143 
 H                     3.75961  -0.53292   2.07825 
 H                     3.76532  -0.52154   0.27395 
 C                    -2.40154  -0.7055    0.49256 
 C                    -1.33366   0.19321   1.14127 
 C                     0.02197  -0.47034   0.95019 
 N                    -1.3033    1.52915   0.51595 
 O                     0.15593  -1.61146   0.51692 
 O                     1.02492   0.35339   1.29866 
 C                    -2.12189  -0.91834  -0.96711 
 H                    -3.3923   -0.2474    0.5965 
 H                    -2.41918  -1.6699    1.00444 
 H                    -1.5263    0.23947   2.22139 
 H                    -1.5039    0.96075  -1.1704 
 H                    -0.41056   1.99753   0.66615 
 H                     1.9244   -0.03993   1.23082 
 N                    -1.70046   0.06924  -1.69492 
 O                    -2.33685  -2.07165  -1.57518 
 H                    -2.0719    2.12856   0.80783 
 H                    -1.4958   -0.06689  -2.78427 
 
 NAtoms=     23 NQM=       23 NQMF=       0 NMMI=      0 NMMIF=      0
                NMic=       0 NMicF=      0.
                    Isotopes and Nuclear Properties:
 (Nuclear quadrupole moments (NQMom) in fm**2, nuclear magnetic moments (NMagM)
  in nuclear magnetons)

  Atom         1           2           3           4           5           6           7           8           9          10
 IAtWgt=          12           1           1           1           1           1          12          12          12          14
 AtmWgt=  12.0000000   1.0078250   1.0078250   1.0078250   1.0078250   1.0078250  12.0000000  12.0000000  12.0000000  14.0030740
 NucSpn=           0           1           1           1           1           1           0           0           0           2
 AtZEff=   0.0000000   0.0000000   0.0000000   0.0000000   0.0000000   0.0000000   0.0000000   0.0000000   0.0000000   0.0000000
 NQMom=    0.0000000   0.0000000   0.0000000   0.0000000   0.0000000   0.0000000   0.0000000   0.0000000   0.0000000   2.0440000
 NMagM=    0.0000000   2.7928460   2.7928460   2.7928460   2.7928460   2.7928460   0.0000000   0.0000000   0.0000000   0.4037610
 AtZNuc=   6.0000000   1.0000000   1.0000000   1.0000000   1.0000000   1.0000000   6.0000000   6.0000000   6.0000000   7.0000000

  Atom        11          12          13          14          15          16          17          18          19          20
 IAtWgt=          16          16          12           1           1           1           1           1           1          14
 AtmWgt=  15.9949146  15.9949146  12.0000000   1.0078250   1.0078250   1.0078250   1.0078250   1.0078250   1.0078250  14.0030740
 NucSpn=           0           0           0           1           1           1           1           1           1           2
 AtZEff=   0.0000000   0.0000000   0.0000000   0.0000000   0.0000000   0.0000000   0.0000000   0.0000000   0.0000000   0.0000000
 NQMom=    0.0000000   0.0000000   0.0000000   0.0000000   0.0000000   0.0000000   0.0000000   0.0000000   0.0000000   2.0440000
 NMagM=    0.0000000   0.0000000   0.0000000   2.7928460   2.7928460   2.7928460   2.7928460   2.7928460   2.7928460   0.4037610
 AtZNuc=   8.0000000   8.0000000   6.0000000   1.0000000   1.0000000   1.0000000   1.0000000   1.0000000   1.0000000   7.0000000

  Atom        21          22          23
 IAtWgt=          16           1           1
 AtmWgt=  15.9949146   1.0078250   1.0078250
 NucSpn=           0           1           1
 AtZEff=   0.0000000   0.0000000   0.0000000
 NQMom=    0.0000000   0.0000000   0.0000000
 NMagM=    0.0000000   2.7928460   2.7928460
 AtZNuc=   8.0000000   1.0000000   1.0000000
 Leave Link  101 at Thu Mar 12 19:05:30 2020, MaxMem=    33554432 cpu:         0.0
 (Enter /usr/local/gaussian09d01/g09/l202.exe)
                          Input orientation:                          
 ---------------------------------------------------------------------
 Center     Atomic      Atomic             Coordinates (Angstroms)
 Number     Number       Type             X           Y           Z
 ---------------------------------------------------------------------
      1          6           0        3.824483   -1.142195    1.172254
      2          1           0        4.799113   -1.629614    1.173809
      3          1           0        3.053614   -1.916313    1.160805
      4          1           0       -2.540416   -2.844982   -1.014303
      5          1           0        3.759606   -0.532918    2.078246
      6          1           0        3.765324   -0.521541    0.273951
      7          6           0       -2.401542   -0.705499    0.492563
      8          6           0       -1.333656    0.193207    1.141271
      9          6           0        0.021967   -0.470338    0.950187
     10          7           0       -1.303305    1.529149    0.515945
     11          8           0        0.155929   -1.611463    0.516920
     12          8           0        1.024922    0.353393    1.298656
     13          6           0       -2.121889   -0.918337   -0.967113
     14          1           0       -3.392299   -0.247402    0.596497
     15          1           0       -2.419177   -1.669900    1.004436
     16          1           0       -1.526304    0.239474    2.221388
     17          1           0       -1.503902    0.960751   -1.170400
     18          1           0       -0.410560    1.997532    0.666151
     19          1           0        1.924402   -0.039926    1.230819
     20          7           0       -1.700457    0.069239   -1.694920
     21          8           0       -2.336855   -2.071648   -1.575178
     22          1           0       -2.071901    2.128557    0.807834
     23          1           0       -1.495804   -0.066886   -2.784266
 ---------------------------------------------------------------------
                    Distance matrix (angstroms):
                    1          2          3          4          5
     1  C    0.000000
     2  H    1.089717   0.000000
     3  H    1.092532   1.768935   0.000000
     4  H    6.942078   7.754589   6.073442   0.000000
     5  H    1.093732   1.761058   1.803858   7.389167   0.000000
     6  H    1.093462   1.762467   1.799563   6.842538   1.804340
     7  C    6.278222   7.291606   5.627730   2.620556   6.364270
     8  C    5.328288   6.398015   4.868120   3.915783   5.229388
     9  C    3.867794   4.920879   3.365425   4.007987   3.904662
    10  N    5.819023   6.902903   5.591940   4.796365   5.685594
    11  O    3.756056   4.689455   2.983974   3.337138   4.072774
    12  O    3.176523   4.265257   3.047319   5.318930   2.978557
    13  C    6.323476   7.279405   5.684173   1.972143   6.634362
    14  H    7.294799   8.327247   6.682328   3.172979   7.309368
    15  H    6.268167   7.220389   5.480567   2.338979   6.373630
    16  H    5.624999   6.678459   5.171838   4.583883   5.343962
    17  H    6.188869   7.206477   5.872220   3.947446   6.363118
    18  H    5.296189   6.368250   5.250083   5.550689   5.078138
    19  H    2.197438   3.285472   2.191084   5.730926   2.080661
    20  N    6.341389   7.304801   5.890567   3.108288   6.664208
    21  O    6.809871   7.659919   6.047056   0.976762   7.272004
    22  H    6.752626   7.840192   6.538842   5.317497   6.534820
    23  H    6.716829   7.598319   6.299299   3.455691   7.174995
                    6          7          8          9         10
     6  H    0.000000
     7  C    6.173481   0.000000
     8  C    5.221370   1.539115   0.000000
     9  C    3.804292   2.477522   1.521354   0.000000
    10  N    5.473106   2.490045   1.475362   2.437797   0.000000
    11  O    3.778186   2.713305   2.421882   1.227938   3.463063
    12  O    3.053740   3.675826   2.369245   1.343831   2.723175
    13  C    6.029674   1.501385   2.510403   2.910818   2.976530
    14  H    7.170129   1.096474   2.174610   3.439769   2.743450
    15  H    6.332486   1.091969   2.160613   2.720492   3.423114
    16  H    5.689726   2.155888   1.098138   2.125307   2.149773
    17  H    5.661103   2.519443   2.441706   2.978788   1.790831
    18  H    4.892602   3.361625   2.081690   2.521535   1.019283
    19  H    2.129916   4.438671   3.267616   1.970601   3.659389
    20  N    5.839541   2.424215   2.862497   3.202261   2.678990
    21  O    6.561912   2.479133   3.676285   3.808636   4.290310
    22  H    6.432825   2.870528   2.098038   3.340478   1.017462
    23  H    6.102366   3.459161   3.937484   4.051239   3.670937
                   11         12         13         14         15
    11  O    0.000000
    12  O    2.286245   0.000000
    13  C    2.805572   4.080861   0.000000
    14  H    3.802225   4.512852   2.123434   0.000000
    15  H    2.621499   4.005259   2.130782   1.771124   0.000000
    16  H    3.026729   2.715358   3.444094   2.521757   2.433907
    17  H    3.495479   3.586095   1.988519   2.854401   3.533832
    18  H    3.656231   2.272415   3.754796   3.733008   4.195121
    19  H    2.471210   0.984055   4.687748   5.358426   4.644862
    20  N    3.341132   4.058317   1.297157   2.865865   3.290545
    21  O    3.286734   5.043936   1.321393   3.026220   2.612009
    22  H    4.362981   3.603113   3.526542   2.726407   3.819362
    23  H    4.001471   4.816736   2.102141   3.880572   4.216223
                   16         17         18         19         20
    16  H    0.000000
    17  H    3.467704   0.000000
    18  H    2.598926   2.375549   0.000000
    19  H    3.600926   4.303542   3.149942   0.000000
    20  N    3.923872   1.052876   3.310106   4.659557   0.000000
    21  O    4.517986   3.170662   5.029155   5.491796   2.236680
    22  H    2.421661   2.366391   1.672511   4.566362   3.262290
    23  H    5.015113   1.913286   4.164727   5.274414   1.116731
                   21         22         23
    21  O    0.000000
    22  H    4.836390   0.000000
    23  H    2.487636   4.249122   0.000000
 Stoichiometry    C5H13N2O3(1+)
 Framework group  C1[X(C5H13N2O3)]
 Deg. of freedom    63
 Full point group                 C1      NOp   1
 Largest Abelian subgroup         C1      NOp   1
 Largest concise Abelian subgroup C1      NOp   1
                         Standard orientation:                         
 ---------------------------------------------------------------------
 Center     Atomic      Atomic             Coordinates (Angstroms)
 Number     Number       Type             X           Y           Z
 ---------------------------------------------------------------------
      1          6           0       -4.368389   -0.945948    0.320071
      2          1           0       -5.272173   -1.549890    0.396964
      3          1           0       -3.654225   -1.476164   -0.314333
      4          1           0        2.342946   -2.240905   -0.893812
      5          1           0       -4.650812    0.014771   -0.119824
      6          1           0       -3.969358   -0.815844    1.329776
      7          6           0        1.649438    0.284790   -0.978817
      8          6           0        0.418568    1.163467   -0.692881
      9          6           0       -0.764909    0.246002   -0.424256
     10          7           0        0.633746    2.022514    0.487132
     11          8           0       -0.728378   -0.967846   -0.606106
     12          8           0       -1.821763    0.932340    0.042523
     13          6           0        1.945534   -0.630902    0.173569
     14          1           0        2.527872    0.915471   -1.160067
     15          1           0        1.467140   -0.308023   -1.877558
     16          1           0        0.185817    1.742153   -1.596682
     17          1           0        1.458816    0.783980    1.483309
     18          1           0       -0.247132    2.329920    0.897611
     19          1           0       -2.629272    0.391629    0.197203
     20          7           0        1.836700   -0.194325    1.390192
     21          8           0        2.371210   -1.871087    0.009791
     22          1           0        1.235760    2.821156    0.300107
     23          1           0        2.061508   -0.857290    2.260264
 ---------------------------------------------------------------------
 Rotational constants (GHZ):      1.7996292      0.7170826      0.6060385
 Leave Link  202 at Thu Mar 12 19:05:30 2020, MaxMem=    33554432 cpu:         0.0
 (Enter /usr/local/gaussian09d01/g09/l301.exe)
 Standard basis: 6-31G (6D, 7F)
 Ernie: Thresh=  0.10000D-02 Tol=  0.10000D-05 Strict=F.
 There are   116 symmetry adapted cartesian basis functions of A   symmetry.
 There are   116 symmetry adapted basis functions of A   symmetry.
   116 basis functions,   272 primitive gaussians,   116 cartesian basis functions
    40 alpha electrons       40 beta electrons
       nuclear repulsion energy       586.0027986396 Hartrees.
 IExCor= 4336 DFT=T Ex+Corr=M062X ExCW=0 ScaHFX=  0.540000
 ScaDFX=  1.000000  1.000000  1.000000  1.000000 ScalE2=  1.000000  1.000000
 IRadAn=      0 IRanWt=     -1 IRanGd=            0 ICorTp=0 IEmpDi=  4
 NAtoms=   23 NActive=   23 NUniq=   23 SFac= 1.00D+00 NAtFMM=   60 NAOKFM=F Big=F
 Integral buffers will be    131072 words long.
 Raffenetti 2 integral format.
 Two-electron integral symmetry is turned on.
 Leave Link  301 at Thu Mar 12 19:05:30 2020, MaxMem=    33554432 cpu:         0.0
 (Enter /usr/local/gaussian09d01/g09/l302.exe)
 NPDir=0 NMtPBC=     1 NCelOv=     1 NCel=       1 NClECP=     1 NCelD=      1
         NCelK=      1 NCelE2=     1 NClLst=     1 CellRange=     0.0.
 One-electron integrals computed using PRISM.
 NBasis=   116 RedAO= T EigKep=  3.52D-03  NBF=   116
 NBsUse=   116 1.00D-06 EigRej= -1.00D+00 NBFU=   116
 Precomputing XC quadrature grid using
 IXCGrd= 4 IRadAn=           0 IRanWt=          -1 IRanGd=           0 AccXCQ= 0.00D+00.
 Generated NRdTot=       0 NPtTot=           0 NUsed=           0 NTot=          32
 NSgBfM=   115   115   115   115   115 MxSgAt=    23 MxSgA2=    23.
 Leave Link  302 at Thu Mar 12 19:05:30 2020, MaxMem=    33554432 cpu:         0.3
 (Enter /usr/local/gaussian09d01/g09/l303.exe)
 DipDrv:  MaxL=1.
 Leave Link  303 at Thu Mar 12 19:05:30 2020, MaxMem=    33554432 cpu:         0.0
 (Enter /usr/local/gaussian09d01/g09/l401.exe)
 ExpMin= 1.61D-01 ExpMax= 5.48D+03 ExpMxC= 8.25D+02 IAcc=1 IRadAn=         1 AccDes= 0.00D+00
 Harris functional with IExCor= 1009 and IRadAn=       1 diagonalized for initial guess.
 HarFok:  IExCor= 1009 AccDes= 0.00D+00 IRadAn=         1 IDoV= 1 UseB2=F ITyADJ=14
 ICtDFT=  3500011 ScaDFX=  1.000000  1.000000  1.000000  1.000000
 FoFCou: FMM=F IPFlag=           0 FMFlag=      100000 FMFlg1=           0
         NFxFlg=           0 DoJE=T BraDBF=F KetDBF=T FulRan=T
         wScrn=  0.000000 ICntrl=     500 IOpCl=  0 I1Cent=   200000004 NGrid=           0
         NMat0=    1 NMatS0=      1 NMatT0=    0 NMatD0=    1 NMtDS0=    0 NMtDT0=    0
 Petite list used in FoFCou.
 Harris En= -532.733559347909    
 JPrj=0 DoOrth=F DoCkMO=F.
 Leave Link  401 at Thu Mar 12 19:05:31 2020, MaxMem=    33554432 cpu:         0.9
 (Enter /usr/local/gaussian09d01/g09/l502.exe)
 Closed shell SCF:
 Using DIIS extrapolation, IDIIS=  1040.
 Integral symmetry usage will be decided dynamically.
 Keep R1 ints in memory in canonical form, NReq=24030401.
 IVT=       60528 IEndB=       60528 NGot=    33554432 MDV=    10465614
 LenX=    10465614 LenY=    10451717
 Requested convergence on RMS density matrix=1.00D-08 within 128 cycles.
 Requested convergence on MAX density matrix=1.00D-06.
 Requested convergence on             energy=1.00D-06.
 No special actions if energy rises.
 FoFCou: FMM=F IPFlag=           0 FMFlag=           0 FMFlg1=           0
         NFxFlg=           0 DoJE=F BraDBF=F KetDBF=F FulRan=T
         wScrn=  0.000000 ICntrl=     600 IOpCl=  0 I1Cent=           0 NGrid=           0
         NMat0=    1 NMatS0=   6786 NMatT0=    0 NMatD0=    1 NMtDS0=    0 NMtDT0=    0
 Symmetry not used in FoFCou.
 Integral accuracy reduced to 1.0D-05 until final iterations.

 Cycle   1  Pass 0  IDiag  1:
 E= -532.651048808993    
 DIIS: error= 5.28D-02 at cycle   1 NSaved=   1.
 NSaved= 1 IEnMin= 1 EnMin= -532.651048808993     IErMin= 1 ErrMin= 5.28D-02
 ErrMax= 5.28D-02  0.00D+00 EMaxC= 1.00D-01 BMatC= 3.11D-01 BMatP= 3.11D-01
 IDIUse=3 WtCom= 4.72D-01 WtEn= 5.28D-01
 Coeff-Com:  0.100D+01
 Coeff-En:   0.100D+01
 Coeff:      0.100D+01
 Gap=     0.306 Goal=   None    Shift=    0.000
 GapD=    0.306 DampG=1.000 DampE=0.500 DampFc=0.5000 IDamp=-1.
 Damping current iteration by 5.00D-01
 RMSDP=8.35D-03 MaxDP=1.64D-01              OVMax= 1.79D-01

 Cycle   2  Pass 0  IDiag  1:
 E= -532.775304410062     Delta-E=       -0.124255601069 Rises=F Damp=T
 DIIS: error= 1.04D-02 at cycle   2 NSaved=   2.
 NSaved= 2 IEnMin= 2 EnMin= -532.775304410062     IErMin= 2 ErrMin= 1.04D-02
 ErrMax= 1.04D-02  0.00D+00 EMaxC= 1.00D-01 BMatC= 1.89D-02 BMatP= 3.11D-01
 IDIUse=3 WtCom= 8.96D-01 WtEn= 1.04D-01
 Coeff-Com:  0.325D-01 0.968D+00
 Coeff-En:   0.358D-01 0.964D+00
 Coeff:      0.328D-01 0.967D+00
 Gap=     0.363 Goal=   None    Shift=    0.000
 RMSDP=2.13D-03 MaxDP=3.52D-02 DE=-1.24D-01 OVMax= 1.09D-01

 Cycle   3  Pass 0  IDiag  1:
 E= -532.903678343313     Delta-E=       -0.128373933251 Rises=F Damp=F
 DIIS: error= 1.19D-02 at cycle   3 NSaved=   3.
 NSaved= 3 IEnMin= 3 EnMin= -532.903678343313     IErMin= 2 ErrMin= 1.04D-02
 ErrMax= 1.19D-02  0.00D+00 EMaxC= 1.00D-01 BMatC= 1.52D-02 BMatP= 1.89D-02
 IDIUse=3 WtCom= 8.81D-01 WtEn= 1.19D-01
 Coeff-Com: -0.241D-01 0.477D+00 0.547D+00
 Coeff-En:   0.000D+00 0.000D+00 0.100D+01
 Coeff:     -0.212D-01 0.420D+00 0.601D+00
 Gap=     0.336 Goal=   None    Shift=    0.000
 RMSDP=1.40D-03 MaxDP=3.65D-02 DE=-1.28D-01 OVMax= 5.68D-02

 Cycle   4  Pass 0  IDiag  1:
 E= -532.913484492638     Delta-E=       -0.009806149325 Rises=F Damp=F
 DIIS: error= 7.61D-03 at cycle   4 NSaved=   4.
 NSaved= 4 IEnMin= 4 EnMin= -532.913484492638     IErMin= 4 ErrMin= 7.61D-03
 ErrMax= 7.61D-03  0.00D+00 EMaxC= 1.00D-01 BMatC= 3.72D-03 BMatP= 1.52D-02
 IDIUse=3 WtCom= 9.24D-01 WtEn= 7.61D-02
 Coeff-Com: -0.688D-02 0.355D-01 0.337D+00 0.635D+00
 Coeff-En:   0.000D+00 0.000D+00 0.195D+00 0.805D+00
 Coeff:     -0.635D-02 0.328D-01 0.326D+00 0.647D+00
 Gap=     0.333 Goal=   None    Shift=    0.000
 RMSDP=5.30D-04 MaxDP=1.14D-02 DE=-9.81D-03 OVMax= 1.84D-02

 Cycle   5  Pass 0  IDiag  1:
 E= -532.916167492427     Delta-E=       -0.002682999789 Rises=F Damp=F
 DIIS: error= 1.13D-03 at cycle   5 NSaved=   5.
 NSaved= 5 IEnMin= 5 EnMin= -532.916167492427     IErMin= 5 ErrMin= 1.13D-03
 ErrMax= 1.13D-03  0.00D+00 EMaxC= 1.00D-01 BMatC= 1.63D-04 BMatP= 3.72D-03
 IDIUse=3 WtCom= 9.89D-01 WtEn= 1.13D-02
 Coeff-Com: -0.108D-02-0.721D-02 0.142D+00 0.334D+00 0.532D+00
 Coeff-En:   0.000D+00 0.000D+00 0.000D+00 0.000D+00 0.100D+01
 Coeff:     -0.107D-02-0.713D-02 0.141D+00 0.330D+00 0.537D+00
 Gap=     0.331 Goal=   None    Shift=    0.000
 RMSDP=1.07D-04 MaxDP=2.15D-03 DE=-2.68D-03 OVMax= 3.65D-03

 Cycle   6  Pass 0  IDiag  1:
 E= -532.916310092151     Delta-E=       -0.000142599724 Rises=F Damp=F
 DIIS: error= 2.89D-04 at cycle   6 NSaved=   6.
 NSaved= 6 IEnMin= 6 EnMin= -532.916310092151     IErMin= 6 ErrMin= 2.89D-04
 ErrMax= 2.89D-04  0.00D+00 EMaxC= 1.00D-01 BMatC= 4.22D-06 BMatP= 1.63D-04
 IDIUse=3 WtCom= 9.97D-01 WtEn= 2.89D-03
 Coeff-Com:  0.532D-03-0.374D-02 0.167D-01 0.321D-01 0.135D+00 0.820D+00
 Coeff-En:   0.000D+00 0.000D+00 0.000D+00 0.000D+00 0.000D+00 0.100D+01
 Coeff:      0.530D-03-0.373D-02 0.167D-01 0.320D-01 0.134D+00 0.820D+00
 Gap=     0.331 Goal=   None    Shift=    0.000
 RMSDP=2.65D-05 MaxDP=3.95D-04 DE=-1.43D-04 OVMax= 5.70D-04

 Cycle   7  Pass 0  IDiag  1:
 E= -532.916314072313     Delta-E=       -0.000003980163 Rises=F Damp=F
 DIIS: error= 8.99D-05 at cycle   7 NSaved=   7.
 NSaved= 7 IEnMin= 7 EnMin= -532.916314072313     IErMin= 7 ErrMin= 8.99D-05
 ErrMax= 8.99D-05  0.00D+00 EMaxC= 1.00D-01 BMatC= 5.29D-07 BMatP= 4.22D-06
 IDIUse=1 WtCom= 1.00D+00 WtEn= 0.00D+00
 Coeff-Com:  0.428D-03-0.600D-03-0.126D-01-0.360D-01-0.195D-01 0.270D+00
 Coeff-Com:  0.798D+00
 Coeff:      0.428D-03-0.600D-03-0.126D-01-0.360D-01-0.195D-01 0.270D+00
 Coeff:      0.798D+00
 Gap=     0.331 Goal=   None    Shift=    0.000
 RMSDP=1.29D-05 MaxDP=2.25D-04 DE=-3.98D-06 OVMax= 3.09D-04

 Cycle   8  Pass 0  IDiag  1:
 E= -532.916314699959     Delta-E=       -0.000000627645 Rises=F Damp=F
 DIIS: error= 2.58D-05 at cycle   8 NSaved=   8.
 NSaved= 8 IEnMin= 8 EnMin= -532.916314699959     IErMin= 8 ErrMin= 2.58D-05
 ErrMax= 2.58D-05  0.00D+00 EMaxC= 1.00D-01 BMatC= 5.20D-08 BMatP= 5.29D-07
 IDIUse=1 WtCom= 1.00D+00 WtEn= 0.00D+00
 Coeff-Com:  0.110D-03 0.982D-04-0.514D-02-0.146D-01-0.173D-01 0.103D-01
 Coeff-Com:  0.273D+00 0.754D+00
 Coeff:      0.110D-03 0.982D-04-0.514D-02-0.146D-01-0.173D-01 0.103D-01
 Coeff:      0.273D+00 0.754D+00
 Gap=     0.331 Goal=   None    Shift=    0.000
 RMSDP=3.46D-06 MaxDP=4.95D-05 DE=-6.28D-07 OVMax= 9.67D-05

 Initial convergence to 1.0D-05 achieved.  Increase integral accuracy.
 Cycle   9  Pass 1  IDiag  1:
 E= -532.916526409198     Delta-E=       -0.000211709240 Rises=F Damp=F
 DIIS: error= 1.36D-04 at cycle   1 NSaved=   1.
 NSaved= 1 IEnMin= 1 EnMin= -532.916526409198     IErMin= 1 ErrMin= 1.36D-04
 ErrMax= 1.36D-04  0.00D+00 EMaxC= 1.00D-01 BMatC= 1.76D-06 BMatP= 1.76D-06
 IDIUse=3 WtCom= 9.99D-01 WtEn= 1.36D-03
 Coeff-Com:  0.100D+01
 Coeff-En:   0.100D+01
 Coeff:      0.100D+01
 Gap=     0.331 Goal=   None    Shift=    0.000
 RMSDP=3.46D-06 MaxDP=4.95D-05 DE=-2.12D-04 OVMax= 1.98D-04

 Cycle  10  Pass 1  IDiag  1:
 E= -532.916528007502     Delta-E=       -0.000001598303 Rises=F Damp=F
 DIIS: error= 7.03D-05 at cycle   2 NSaved=   2.
 NSaved= 2 IEnMin= 2 EnMin= -532.916528007502     IErMin= 2 ErrMin= 7.03D-05
 ErrMax= 7.03D-05  0.00D+00 EMaxC= 1.00D-01 BMatC= 3.55D-07 BMatP= 1.76D-06
 IDIUse=1 WtCom= 1.00D+00 WtEn= 0.00D+00
 Coeff-Com:  0.235D+00 0.765D+00
 Coeff:      0.235D+00 0.765D+00
 Gap=     0.331 Goal=   None    Shift=    0.000
 RMSDP=7.16D-06 MaxDP=1.36D-04 DE=-1.60D-06 OVMax= 1.77D-04

 Cycle  11  Pass 1  IDiag  1:
 E= -532.916528260963     Delta-E=       -0.000000253461 Rises=F Damp=F
 DIIS: error= 2.87D-05 at cycle   3 NSaved=   3.
 NSaved= 3 IEnMin= 3 EnMin= -532.916528260963     IErMin= 3 ErrMin= 2.87D-05
 ErrMax= 2.87D-05  0.00D+00 EMaxC= 1.00D-01 BMatC= 1.32D-07 BMatP= 3.55D-07
 IDIUse=1 WtCom= 1.00D+00 WtEn= 0.00D+00
 Coeff-Com: -0.315D-01 0.364D+00 0.668D+00
 Coeff:     -0.315D-01 0.364D+00 0.668D+00
 Gap=     0.331 Goal=   None    Shift=    0.000
 RMSDP=3.41D-06 MaxDP=7.12D-05 DE=-2.53D-07 OVMax= 1.02D-04

 Cycle  12  Pass 1  IDiag  1:
 E= -532.916528367984     Delta-E=       -0.000000107021 Rises=F Damp=F
 DIIS: error= 9.41D-06 at cycle   4 NSaved=   4.
 NSaved= 4 IEnMin= 4 EnMin= -532.916528367984     IErMin= 4 ErrMin= 9.41D-06
 ErrMax= 9.41D-06  0.00D+00 EMaxC= 1.00D-01 BMatC= 1.16D-08 BMatP= 1.32D-07
 IDIUse=1 WtCom= 1.00D+00 WtEn= 0.00D+00
 Coeff-Com: -0.302D-01 0.154D+00 0.352D+00 0.525D+00
 Coeff:     -0.302D-01 0.154D+00 0.352D+00 0.525D+00
 Gap=     0.331 Goal=   None    Shift=    0.000
 RMSDP=8.31D-07 MaxDP=1.73D-05 DE=-1.07D-07 OVMax= 3.26D-05

 Cycle  13  Pass 1  IDiag  1:
 E= -532.916528377833     Delta-E=       -0.000000009849 Rises=F Damp=F
 DIIS: error= 2.39D-06 at cycle   5 NSaved=   5.
 NSaved= 5 IEnMin= 5 EnMin= -532.916528377833     IErMin= 5 ErrMin= 2.39D-06
 ErrMax= 2.39D-06  0.00D+00 EMaxC= 1.00D-01 BMatC= 3.24D-10 BMatP= 1.16D-08
 IDIUse=1 WtCom= 1.00D+00 WtEn= 0.00D+00
 Coeff-Com: -0.537D-02 0.839D-02 0.304D-01 0.137D+00 0.830D+00
 Coeff:     -0.537D-02 0.839D-02 0.304D-01 0.137D+00 0.830D+00
 Gap=     0.331 Goal=   None    Shift=    0.000
 RMSDP=3.04D-07 MaxDP=5.51D-06 DE=-9.85D-09 OVMax= 7.23D-06

 Cycle  14  Pass 1  IDiag  1:
 E= -532.916528378055     Delta-E=       -0.000000000222 Rises=F Damp=F
 DIIS: error= 1.64D-06 at cycle   6 NSaved=   6.
 NSaved= 6 IEnMin= 6 EnMin= -532.916528378055     IErMin= 6 ErrMin= 1.64D-06
 ErrMax= 1.64D-06  0.00D+00 EMaxC= 1.00D-01 BMatC= 1.87D-10 BMatP= 3.24D-10
 IDIUse=1 WtCom= 1.00D+00 WtEn= 0.00D+00
 Coeff-Com:  0.149D-02-0.174D-01-0.343D-01 0.891D-02 0.501D+00 0.540D+00
 Coeff:      0.149D-02-0.174D-01-0.343D-01 0.891D-02 0.501D+00 0.540D+00
 Gap=     0.331 Goal=   None    Shift=    0.000
 RMSDP=1.10D-07 MaxDP=3.21D-06 DE=-2.22D-10 OVMax= 5.69D-06

 Cycle  15  Pass 1  IDiag  1:
 E= -532.916528378200     Delta-E=       -0.000000000145 Rises=F Damp=F
 DIIS: error= 3.57D-07 at cycle   7 NSaved=   7.
 NSaved= 7 IEnMin= 7 EnMin= -532.916528378200     IErMin= 7 ErrMin= 3.57D-07
 ErrMax= 3.57D-07  0.00D+00 EMaxC= 1.00D-01 BMatC= 6.96D-12 BMatP= 1.87D-10
 IDIUse=1 WtCom= 1.00D+00 WtEn= 0.00D+00
 Coeff-Com:  0.837D-03-0.578D-02-0.130D-01-0.564D-02 0.709D-01 0.189D+00
 Coeff-Com:  0.764D+00
 Coeff:      0.837D-03-0.578D-02-0.130D-01-0.564D-02 0.709D-01 0.189D+00
 Coeff:      0.764D+00
 Gap=     0.331 Goal=   None    Shift=    0.000
 RMSDP=4.20D-08 MaxDP=8.67D-07 DE=-1.45D-10 OVMax= 1.02D-06

 Cycle  16  Pass 1  IDiag  1:
 E= -532.916528378215     Delta-E=       -0.000000000015 Rises=F Damp=F
 DIIS: error= 8.65D-08 at cycle   8 NSaved=   8.
 NSaved= 8 IEnMin= 8 EnMin= -532.916528378215     IErMin= 8 ErrMin= 8.65D-08
 ErrMax= 8.65D-08  0.00D+00 EMaxC= 1.00D-01 BMatC= 1.40D-12 BMatP= 6.96D-12
 IDIUse=1 WtCom= 1.00D+00 WtEn= 0.00D+00
 Coeff-Com:  0.162D-03-0.298D-04-0.962D-03-0.355D-02-0.509D-01 0.141D-01
 Coeff-Com:  0.373D+00 0.669D+00
 Coeff:      0.162D-03-0.298D-04-0.962D-03-0.355D-02-0.509D-01 0.141D-01
 Coeff:      0.373D+00 0.669D+00
 Gap=     0.331 Goal=   None    Shift=    0.000
 RMSDP=1.41D-08 MaxDP=2.84D-07 DE=-1.48D-11 OVMax= 4.25D-07

 Cycle  17  Pass 1  IDiag  1:
 E= -532.916528378209     Delta-E=        0.000000000006 Rises=F Damp=F
 DIIS: error= 3.18D-08 at cycle   9 NSaved=   9.
 NSaved= 9 IEnMin= 8 EnMin= -532.916528378215     IErMin= 9 ErrMin= 3.18D-08
 ErrMax= 3.18D-08  0.00D+00 EMaxC= 1.00D-01 BMatC= 8.19D-14 BMatP= 1.40D-12
 IDIUse=1 WtCom= 1.00D+00 WtEn= 0.00D+00
 Coeff-Com: -0.352D-04 0.563D-03 0.102D-02-0.231D-03-0.221D-01-0.119D-01
 Coeff-Com:  0.206D-01 0.191D+00 0.821D+00
 Coeff:     -0.352D-04 0.563D-03 0.102D-02-0.231D-03-0.221D-01-0.119D-01
 Coeff:      0.206D-01 0.191D+00 0.821D+00
 Gap=     0.331 Goal=   None    Shift=    0.000
 RMSDP=5.06D-09 MaxDP=9.34D-08 DE= 6.37D-12 OVMax= 2.14D-07

 SCF Done:  E(RM062X) =  -532.916528378     A.U. after   17 cycles
            NFock= 17  Conv=0.51D-08     -V/T= 2.0058
 KE= 5.298642259028D+02 PE=-2.404023107846D+03 EE= 7.552395549258D+02
 Leave Link  502 at Thu Mar 12 19:06:29 2020, MaxMem=    33554432 cpu:        58.1
 (Enter /usr/local/gaussian09d01/g09/l601.exe)
 Copying SCF densities to generalized density rwf, IOpCl= 0 IROHF=0.

 **********************************************************************

            Population analysis using the SCF density.

 **********************************************************************

 Orbital symmetries:
       Occupied  (A) (A) (A) (A) (A) (A) (A) (A) (A) (A) (A) (A)
                 (A) (A) (A) (A) (A) (A) (A) (A) (A) (A) (A) (A)
                 (A) (A) (A) (A) (A) (A) (A) (A) (A) (A) (A) (A)
                 (A) (A) (A) (A)
       Virtual   (A) (A) (A) (A) (A) (A) (A) (A) (A) (A) (A) (A)
                 (A) (A) (A) (A) (A) (A) (A) (A) (A) (A) (A) (A)
                 (A) (A) (A) (A) (A) (A) (A) (A) (A) (A) (A) (A)
                 (A) (A) (A) (A) (A) (A) (A) (A) (A) (A) (A) (A)
                 (A) (A) (A) (A) (A) (A) (A) (A) (A) (A) (A) (A)
                 (A) (A) (A) (A) (A) (A) (A) (A) (A) (A) (A) (A)
                 (A) (A) (A) (A)
 The electronic state is 1-A.
 Alpha  occ. eigenvalues --  -19.88450 -19.84053 -19.80537 -14.99313 -14.92916
 Alpha  occ. eigenvalues --  -10.89543 -10.86181 -10.77934 -10.75475 -10.63071
 Alpha  occ. eigenvalues --   -1.42867  -1.40263  -1.31252  -1.24901  -1.18306
 Alpha  occ. eigenvalues --   -1.06226  -0.96744  -0.93106  -0.90009  -0.86318
 Alpha  occ. eigenvalues --   -0.82939  -0.79295  -0.76919  -0.73883  -0.73410
 Alpha  occ. eigenvalues --   -0.72728  -0.72018  -0.69189  -0.66292  -0.64695
 Alpha  occ. eigenvalues --   -0.63638  -0.61877  -0.60678  -0.57087  -0.56867
 Alpha  occ. eigenvalues --   -0.56242  -0.55924  -0.54139  -0.51595  -0.49303
 Alpha virt. eigenvalues --   -0.16184  -0.12245  -0.06760  -0.05324  -0.02254
 Alpha virt. eigenvalues --   -0.00590   0.00962   0.01705   0.04677   0.05083
 Alpha virt. eigenvalues --    0.06606   0.07234   0.07890   0.10719   0.11127
 Alpha virt. eigenvalues --    0.11270   0.12258   0.12960   0.16159   0.18700
 Alpha virt. eigenvalues --    0.20615   0.23804   0.27945   0.38832   0.41771
 Alpha virt. eigenvalues --    0.43264   0.45901   0.46177   0.48109   0.48207
 Alpha virt. eigenvalues --    0.49768   0.51830   0.52008   0.55048   0.58104
 Alpha virt. eigenvalues --    0.58444   0.59420   0.62968   0.64190   0.67318
 Alpha virt. eigenvalues --    0.68355   0.70444   0.71986   0.74991   0.75347
 Alpha virt. eigenvalues --    0.77076   0.78740   0.80799   0.83679   0.84234
 Alpha virt. eigenvalues --    0.86064   0.87402   0.87840   0.88185   0.91182
 Alpha virt. eigenvalues --    0.92172   0.92603   0.94567   0.95162   0.96616
 Alpha virt. eigenvalues --    1.02299   1.04054   1.08941   1.11039   1.12208
 Alpha virt. eigenvalues --    1.15015   1.19233   1.28438   1.30895   1.33782
 Alpha virt. eigenvalues --    1.42112   1.54385   1.63671   1.75918   1.76655
 Alpha virt. eigenvalues --    1.86748
          Condensed to atoms (all electrons):
               1          2          3          4          5          6
     1  C    5.189272   0.375498   0.371697   0.000000   0.370197   0.370779
     2  H    0.375498   0.468957  -0.017922   0.000000  -0.019803  -0.020249
     3  H    0.371697  -0.017922   0.520985   0.000000  -0.029553  -0.030150
     4  H    0.000000   0.000000   0.000000   0.289715   0.000000   0.000000
     5  H    0.370197  -0.019803  -0.029553   0.000000   0.538120  -0.032256
     6  H    0.370779  -0.020249  -0.030150   0.000000  -0.032256   0.545516
     7  C    0.000000   0.000000  -0.000001  -0.005898   0.000000   0.000000
     8  C   -0.000004   0.000001   0.000083   0.000136  -0.000011  -0.000007
     9  C    0.000274   0.000037   0.001480   0.000051  -0.000154  -0.000131
    10  N    0.000000   0.000000  -0.000001   0.000025   0.000000   0.000000
    11  O   -0.001307   0.000015   0.003270   0.000351   0.000043   0.000016
    12  O   -0.005256   0.000175  -0.001619   0.000000  -0.000764  -0.000634
    13  C    0.000000   0.000000   0.000000  -0.015606   0.000000   0.000000
    14  H    0.000000   0.000000   0.000000   0.000011   0.000000   0.000000
    15  H    0.000000   0.000000   0.000000   0.003671   0.000000   0.000000
    16  H    0.000001   0.000000  -0.000002   0.000003   0.000000   0.000000
    17  H    0.000000   0.000000   0.000000  -0.000026   0.000000   0.000000
    18  H   -0.000001   0.000000   0.000000   0.000000   0.000000   0.000000
    19  H    0.027015  -0.000942   0.002071   0.000000   0.005199   0.004721
    20  N    0.000000   0.000000   0.000000   0.005748   0.000000   0.000000
    21  O    0.000000   0.000000   0.000000   0.257196   0.000000   0.000000
    22  H    0.000000   0.000000   0.000000  -0.000001   0.000000   0.000000
    23  H    0.000000   0.000000   0.000000  -0.000017   0.000000   0.000000
               7          8          9         10         11         12
     1  C    0.000000  -0.000004   0.000274   0.000000  -0.001307  -0.005256
     2  H    0.000000   0.000001   0.000037   0.000000   0.000015   0.000175
     3  H   -0.000001   0.000083   0.001480  -0.000001   0.003270  -0.001619
     4  H   -0.005898   0.000136   0.000051   0.000025   0.000351   0.000000
     5  H    0.000000  -0.000011  -0.000154   0.000000   0.000043  -0.000764
     6  H    0.000000  -0.000007  -0.000131   0.000000   0.000016  -0.000634
     7  C    5.428337   0.217365  -0.048076  -0.074254   0.007890   0.005363
     8  C    0.217365   5.569610   0.151403   0.193192  -0.124299  -0.148200
     9  C   -0.048076   0.151403   4.754015  -0.049301   0.495000   0.195710
    10  N   -0.074254   0.193192  -0.049301   7.095625   0.002200   0.001782
    11  O    0.007890  -0.124299   0.495000   0.002200   8.124483  -0.108479
    12  O    0.005363  -0.148200   0.195710   0.001782  -0.108479   8.417091
    13  C    0.266355  -0.016326  -0.007599  -0.006209   0.011146  -0.000520
    14  H    0.376323  -0.027661   0.005596  -0.001459   0.000417  -0.000025
    15  H    0.367763  -0.027438  -0.001975   0.003789   0.004688   0.000131
    16  H   -0.043481   0.385625  -0.026891  -0.035818   0.001069   0.000893
    17  H   -0.009698  -0.010876  -0.000621   0.095179   0.000199  -0.000071
    18  H    0.004851  -0.034187  -0.007465   0.320752   0.000225   0.013188
    19  H   -0.000158   0.005410  -0.018780  -0.000118  -0.000658   0.237006
    20  N   -0.099835   0.003656   0.000174  -0.075355  -0.003481   0.000051
    21  O   -0.063276   0.002715  -0.000507  -0.000163  -0.001607  -0.000001
    22  H   -0.000887  -0.029140   0.004136   0.322153  -0.000080  -0.000003
    23  H    0.003077  -0.000160  -0.000090   0.001369   0.000016   0.000002
              13         14         15         16         17         18
     1  C    0.000000   0.000000   0.000000   0.000001   0.000000  -0.000001
     2  H    0.000000   0.000000   0.000000   0.000000   0.000000   0.000000
     3  H    0.000000   0.000000   0.000000  -0.000002   0.000000   0.000000
     4  H   -0.015606   0.000011   0.003671   0.000003  -0.000026   0.000000
     5  H    0.000000   0.000000   0.000000   0.000000   0.000000   0.000000
     6  H    0.000000   0.000000   0.000000   0.000000   0.000000   0.000000
     7  C    0.266355   0.376323   0.367763  -0.043481  -0.009698   0.004851
     8  C   -0.016326  -0.027661  -0.027438   0.385625  -0.010876  -0.034187
     9  C   -0.007599   0.005596  -0.001975  -0.026891  -0.000621  -0.007465
    10  N   -0.006209  -0.001459   0.003789  -0.035818   0.095179   0.320752
    11  O    0.011146   0.000417   0.004688   0.001069   0.000199   0.000225
    12  O   -0.000520  -0.000025   0.000131   0.000893  -0.000071   0.013188
    13  C    4.637848  -0.035542  -0.032076   0.004167  -0.020620   0.000192
    14  H   -0.035542   0.441657  -0.016040  -0.003197  -0.000302  -0.000054
    15  H   -0.032076  -0.016040   0.465041  -0.000704   0.000373  -0.000101
    16  H    0.004167  -0.003197  -0.000704   0.460436   0.000999   0.000993
    17  H   -0.020620  -0.000302   0.000373   0.000999   0.255135  -0.000471
    18  H    0.000192  -0.000054  -0.000101   0.000993  -0.000471   0.337322
    19  H   -0.000011   0.000002  -0.000002  -0.000247  -0.000021  -0.000260
    20  N    0.297976  -0.001715   0.004424  -0.000317   0.238993   0.000285
    21  O    0.327194   0.001052  -0.002872  -0.000070   0.001088   0.000002
    22  H   -0.000256   0.001617  -0.000072  -0.003785  -0.001570  -0.020797
    23  H   -0.019643  -0.000110  -0.000060   0.000008  -0.001190  -0.000010
              19         20         21         22         23
     1  C    0.027015   0.000000   0.000000   0.000000   0.000000
     2  H   -0.000942   0.000000   0.000000   0.000000   0.000000
     3  H    0.002071   0.000000   0.000000   0.000000   0.000000
     4  H    0.000000   0.005748   0.257196  -0.000001  -0.000017
     5  H    0.005199   0.000000   0.000000   0.000000   0.000000
     6  H    0.004721   0.000000   0.000000   0.000000   0.000000
     7  C   -0.000158  -0.099835  -0.063276  -0.000887   0.003077
     8  C    0.005410   0.003656   0.002715  -0.029140  -0.000160
     9  C   -0.018780   0.000174  -0.000507   0.004136  -0.000090
    10  N   -0.000118  -0.075355  -0.000163   0.322153   0.001369
    11  O   -0.000658  -0.003481  -0.001607  -0.000080   0.000016
    12  O    0.237006   0.000051  -0.000001  -0.000003   0.000002
    13  C   -0.000011   0.297976   0.327194  -0.000256  -0.019643
    14  H    0.000002  -0.001715   0.001052   0.001617  -0.000110
    15  H   -0.000002   0.004424  -0.002872  -0.000072  -0.000060
    16  H   -0.000247  -0.000317  -0.000070  -0.003785   0.000008
    17  H   -0.000021   0.238993   0.001088  -0.001570  -0.001190
    18  H   -0.000260   0.000285   0.000002  -0.020797  -0.000010
    19  H    0.274880   0.000011   0.000000   0.000016  -0.000001
    20  N    0.000011   7.155543  -0.112249   0.000933   0.288688
    21  O    0.000000  -0.112249   8.139912   0.000002  -0.000574
    22  H    0.000016   0.000933   0.000002   0.369814  -0.000019
    23  H   -0.000001   0.288688  -0.000574  -0.000019   0.292400
 Mulliken charges:
               1
     1  C   -0.698165
     2  H    0.214233
     3  H    0.179660
     4  H    0.464640
     5  H    0.168981
     6  H    0.162395
     7  C   -0.331760
     8  C   -0.110887
     9  C    0.553713
    10  N   -0.793387
    11  O   -0.411118
    12  O   -0.605821
    13  C    0.609532
    14  H    0.259431
    15  H    0.231461
    16  H    0.260316
    17  H    0.453499
    18  H    0.385534
    19  H    0.464865
    20  N   -0.703531
    21  O   -0.547843
    22  H    0.357939
    23  H    0.436313
 Sum of Mulliken charges =   1.00000
 Mulliken charges with hydrogens summed into heavy atoms:
               1
     1  C    0.027103
     7  C    0.159132
     8  C    0.149429
     9  C    0.553713
    10  N   -0.049914
    11  O   -0.411118
    12  O   -0.140956
    13  C    0.609532
    20  N    0.186282
    21  O   -0.083203
 Electronic spatial extent (au):  <R**2>=           1996.2307
 Charge=              1.0000 electrons
 Dipole moment (field-independent basis, Debye):
    X=              4.7244    Y=              1.8901    Z=             -0.0434  Tot=              5.0886
 Quadrupole moment (field-independent basis, Debye-Ang):
   XX=            -33.5632   YY=            -48.1599   ZZ=            -47.3203
   XY=             -1.0971   XZ=             -3.1574   YZ=              0.7490
 Traceless Quadrupole moment (field-independent basis, Debye-Ang):
   XX=              9.4513   YY=             -5.1454   ZZ=             -4.3058
   XY=             -1.0971   XZ=             -3.1574   YZ=              0.7490
 Octapole moment (field-independent basis, Debye-Ang**2):
  XXX=            -21.3000  YYY=             16.0569  ZZZ=             13.8917  XYY=             23.7666
  XXY=            -17.7504  XXZ=             -0.2178  XZZ=             24.8929  YZZ=             -7.1802
  YYZ=             -5.1554  XYZ=              5.8818
 Hexadecapole moment (field-independent basis, Debye-Ang**3):
 XXXX=          -1435.0313 YYYY=           -429.6981 ZZZZ=           -192.5050 XXXY=             24.8945
 XXXZ=            -30.3022 YYYX=            -15.3936 YYYZ=             38.6197 ZZZX=             32.4668
 ZZZY=             -9.0890 XXYY=           -330.3997 XXZZ=           -286.8914 YYZZ=           -107.6799
 XXYZ=              8.6742 YYXZ=            -24.6123 ZZXY=            -33.0956
 N-N= 5.860027986396D+02 E-N=-2.404023109042D+03  KE= 5.298642259028D+02
 No NMR shielding tensors so no spin-rotation constants.
 Leave Link  601 at Thu Mar 12 19:06:30 2020, MaxMem=    33554432 cpu:         0.1
 (Enter /usr/local/gaussian09d01/g09/l9999.exe)
 1\1\GINC-KARURA\SP\RM062X\6-31G\C5H13N2O3(1+)\RTAKE\12-Mar-2020\0\\#p 
 M062X/6-31G\\chk calc\\1,1\C,0,3.824482709,-1.14219544,1.17225369\H,0,
 4.799113079,-1.62961423,1.173808707\H,0,3.053614027,-1.916312598,1.160
 804944\H,0,-2.540416453,-2.844981592,-1.014302773\H,0,3.75960642,-0.53
 291794,2.07824618\H,0,3.765323683,-0.52154146,0.273951194\C,0,-2.40154
 2122,-0.705499021,0.492562549\C,0,-1.33365594,0.193207044,1.141270536\
 C,0,0.021967089,-0.47033751,0.950186539\N,0,-1.303304814,1.529148773,0
 .515945207\O,0,0.155929117,-1.611462803,0.51692019\O,0,1.024922388,0.3
 53392554,1.298656\C,0,-2.121889445,-0.918337302,-0.967112723\H,0,-3.39
 229932,-0.247402335,0.596496855\H,0,-2.419176945,-1.669900059,1.004436
 439\H,0,-1.526304416,0.239474424,2.221387894\H,0,-1.503902114,0.960750
 702,-1.170400229\H,0,-0.410560182,1.997532273,0.666150752\H,0,1.924402
 159,-0.039925506,1.230818645\N,0,-1.700457396,0.069239192,-1.694919761
 \O,0,-2.336854815,-2.071648312,-1.575178364\H,0,-2.071900591,2.1285565
 43,0.807834339\H,0,-1.495803868,-0.066885757,-2.784265922\\Version=ES6
 4L-G09RevD.01\State=1-A\HF=-532.9165284\RMSD=5.055e-09\Dipole=-1.86412
 34,0.6420076,-0.3478002\Quadrupole=6.6078854,-3.1996973,-3.4081881,1.9
 1029,2.6770621,0.2010821\PG=C01 [X(C5H13N2O3)]\\@


 WE HAVE LEARNED THAT NOTHING IS SIMPLE AND
 RATIONAL EXCEPT WHAT WE OURSELVES HAVE INVENTED;
 THAT GOD THINKS IN TERMS NEITHER OF EUCLID OR RIEMANN; THAT SCIENCE HAS "EXPLAINED" NOTHING;
 THAT THE MORE WE KNOW THE MORE FANTASTIC THE WORLD BECOMES
 AND THE PROFOUNDER THE SURROUNDING DARKNESS.
   --  ALDOUS HUXLEY
 Job cpu time:       0 days  0 hours  0 minutes 59.6 seconds.
 File lengths (MBytes):  RWF=      7 Int=      0 D2E=      0 Chk=      2 Scr=      1
 Normal termination of Gaussian 09 at Thu Mar 12 19:06:30 2020.
