 Entering Gaussian System, Link 0=g09
 Input=./n20_h23_08.gjf
 Output=./n20_h23_08.log
 Initial command:
 /usr/local/gaussian09d01/g09/l1.exe "/scr/Gau-19867.inp" -scrdir="/scr/"
 Entering Link 1 = /usr/local/gaussian09d01/g09/l1.exe PID=     19868.
  
 Copyright (c) 1988,1990,1992,1993,1995,1998,2003,2009,2013,
            Gaussian, Inc.  All Rights Reserved.
  
 This is part of the Gaussian(R) 09 program.  It is based on
 the Gaussian(R) 03 system (copyright 2003, Gaussian, Inc.),
 the Gaussian(R) 98 system (copyright 1998, Gaussian, Inc.),
 the Gaussian(R) 94 system (copyright 1995, Gaussian, Inc.),
 the Gaussian 92(TM) system (copyright 1992, Gaussian, Inc.),
 the Gaussian 90(TM) system (copyright 1990, Gaussian, Inc.),
 the Gaussian 88(TM) system (copyright 1988, Gaussian, Inc.),
 the Gaussian 86(TM) system (copyright 1986, Carnegie Mellon
 University), and the Gaussian 82(TM) system (copyright 1983,
 Carnegie Mellon University). Gaussian is a federally registered
 trademark of Gaussian, Inc.
  
 This software contains proprietary and confidential information,
 including trade secrets, belonging to Gaussian, Inc.
  
 This software is provided under written license and may be
 used, copied, transmitted, or stored only in accord with that
 written license.
  
 The following legend is applicable only to US Government
 contracts under FAR:
  
                    RESTRICTED RIGHTS LEGEND
  
 Use, reproduction and disclosure by the US Government is
 subject to restrictions as set forth in subparagraphs (a)
 and (c) of the Commercial Computer Software - Restricted
 Rights clause in FAR 52.227-19.
  
 Gaussian, Inc.
 340 Quinnipiac St., Bldg. 40, Wallingford CT 06492
  
  
 ---------------------------------------------------------------
 Warning -- This program may not be used in any manner that
 competes with the business of Gaussian, Inc. or will provide
 assistance to any competitor of Gaussian, Inc.  The licensee
 of this program is prohibited from giving any competitor of
 Gaussian, Inc. access to this program.  By using this program,
 the user acknowledges that Gaussian, Inc. is engaged in the
 business of creating and licensing software in the field of
 computational chemistry and represents and warrants to the
 licensee that it is not a competitor of Gaussian, Inc. and that
 it will not use this program in any manner prohibited above.
 ---------------------------------------------------------------
  

 Cite this work as:
 Gaussian 09, Revision D.01,
 M. J. Frisch, G. W. Trucks, H. B. Schlegel, G. E. Scuseria, 
 M. A. Robb, J. R. Cheeseman, G. Scalmani, V. Barone, B. Mennucci, 
 G. A. Petersson, H. Nakatsuji, M. Caricato, X. Li, H. P. Hratchian, 
 A. F. Izmaylov, J. Bloino, G. Zheng, J. L. Sonnenberg, M. Hada, 
 M. Ehara, K. Toyota, R. Fukuda, J. Hasegawa, M. Ishida, T. Nakajima, 
 Y. Honda, O. Kitao, H. Nakai, T. Vreven, J. A. Montgomery, Jr., 
 J. E. Peralta, F. Ogliaro, M. Bearpark, J. J. Heyd, E. Brothers, 
 K. N. Kudin, V. N. Staroverov, T. Keith, R. Kobayashi, J. Normand, 
 K. Raghavachari, A. Rendell, J. C. Burant, S. S. Iyengar, J. Tomasi, 
 M. Cossi, N. Rega, J. M. Millam, M. Klene, J. E. Knox, J. B. Cross, 
 V. Bakken, C. Adamo, J. Jaramillo, R. Gomperts, R. E. Stratmann, 
 O. Yazyev, A. J. Austin, R. Cammi, C. Pomelli, J. W. Ochterski, 
 R. L. Martin, K. Morokuma, V. G. Zakrzewski, G. A. Voth, 
 P. Salvador, J. J. Dannenberg, S. Dapprich, A. D. Daniels, 
 O. Farkas, J. B. Foresman, J. V. Ortiz, J. Cioslowski, 
 and D. J. Fox, Gaussian, Inc., Wallingford CT, 2013.
 
 ******************************************
 Gaussian 09:  ES64L-G09RevD.01 24-Apr-2013
                12-Mar-2020 
 ******************************************
 --------------
 #p M062X/6-31G
 --------------
 1/38=1/1;
 2/12=2,17=6,18=5,40=1/2;
 3/5=1,6=6,11=2,16=1,25=1,30=1,74=-55/1,2,3;
 4//1;
 5/5=2,38=5/2;
 6/7=2,8=2,9=2,10=2,28=1/1;
 99/5=1,9=1/99;
 Leave Link    1 at Thu Mar 12 19:02:39 2020, MaxMem=           0 cpu:         0.0
 (Enter /usr/local/gaussian09d01/g09/l101.exe)
 --------
 chk calc
 --------
 Symbolic Z-matrix:
 Charge =  1 Multiplicity = 1
 C                     3.82448  -1.1422    1.17225 
 H                     4.79911  -1.62961   1.17381 
 H                     3.05361  -1.91631   1.1608 
 H                    -2.54042  -2.84498  -1.0143 
 H                     3.75961  -0.53292   2.07825 
 H                     3.76532  -0.52154   0.27395 
 C                    -2.40154  -0.7055    0.49256 
 C                    -1.33366   0.19321   1.14127 
 C                     0.02197  -0.47034   0.95019 
 N                    -1.3033    1.52915   0.51595 
 O                     0.15593  -1.61146   0.51692 
 O                     1.02492   0.35339   1.29866 
 C                    -2.12189  -0.91834  -0.96711 
 H                    -3.3923   -0.2474    0.5965 
 H                    -2.41918  -1.6699    1.00444 
 H                    -1.5263    0.23947   2.22139 
 H                    -1.5039    0.96075  -1.1704 
 H                    -0.41056   1.99753   0.66615 
 H                     1.9244   -0.03993   1.23082 
 N                    -1.70046   0.06924  -1.69492 
 O                    -2.33685  -2.07165  -1.57518 
 H                    -2.0719    2.12856   0.80783 
 H                    -1.55162  -0.02976  -2.48717 
 
 NAtoms=     23 NQM=       23 NQMF=       0 NMMI=      0 NMMIF=      0
                NMic=       0 NMicF=      0.
                    Isotopes and Nuclear Properties:
 (Nuclear quadrupole moments (NQMom) in fm**2, nuclear magnetic moments (NMagM)
  in nuclear magnetons)

  Atom         1           2           3           4           5           6           7           8           9          10
 IAtWgt=          12           1           1           1           1           1          12          12          12          14
 AtmWgt=  12.0000000   1.0078250   1.0078250   1.0078250   1.0078250   1.0078250  12.0000000  12.0000000  12.0000000  14.0030740
 NucSpn=           0           1           1           1           1           1           0           0           0           2
 AtZEff=   0.0000000   0.0000000   0.0000000   0.0000000   0.0000000   0.0000000   0.0000000   0.0000000   0.0000000   0.0000000
 NQMom=    0.0000000   0.0000000   0.0000000   0.0000000   0.0000000   0.0000000   0.0000000   0.0000000   0.0000000   2.0440000
 NMagM=    0.0000000   2.7928460   2.7928460   2.7928460   2.7928460   2.7928460   0.0000000   0.0000000   0.0000000   0.4037610
 AtZNuc=   6.0000000   1.0000000   1.0000000   1.0000000   1.0000000   1.0000000   6.0000000   6.0000000   6.0000000   7.0000000

  Atom        11          12          13          14          15          16          17          18          19          20
 IAtWgt=          16          16          12           1           1           1           1           1           1          14
 AtmWgt=  15.9949146  15.9949146  12.0000000   1.0078250   1.0078250   1.0078250   1.0078250   1.0078250   1.0078250  14.0030740
 NucSpn=           0           0           0           1           1           1           1           1           1           2
 AtZEff=   0.0000000   0.0000000   0.0000000   0.0000000   0.0000000   0.0000000   0.0000000   0.0000000   0.0000000   0.0000000
 NQMom=    0.0000000   0.0000000   0.0000000   0.0000000   0.0000000   0.0000000   0.0000000   0.0000000   0.0000000   2.0440000
 NMagM=    0.0000000   0.0000000   0.0000000   2.7928460   2.7928460   2.7928460   2.7928460   2.7928460   2.7928460   0.4037610
 AtZNuc=   8.0000000   8.0000000   6.0000000   1.0000000   1.0000000   1.0000000   1.0000000   1.0000000   1.0000000   7.0000000

  Atom        21          22          23
 IAtWgt=          16           1           1
 AtmWgt=  15.9949146   1.0078250   1.0078250
 NucSpn=           0           1           1
 AtZEff=   0.0000000   0.0000000   0.0000000
 NQMom=    0.0000000   0.0000000   0.0000000
 NMagM=    0.0000000   2.7928460   2.7928460
 AtZNuc=   8.0000000   1.0000000   1.0000000
 Leave Link  101 at Thu Mar 12 19:02:39 2020, MaxMem=    33554432 cpu:         0.0
 (Enter /usr/local/gaussian09d01/g09/l202.exe)
                          Input orientation:                          
 ---------------------------------------------------------------------
 Center     Atomic      Atomic             Coordinates (Angstroms)
 Number     Number       Type             X           Y           Z
 ---------------------------------------------------------------------
      1          6           0        3.824483   -1.142195    1.172254
      2          1           0        4.799113   -1.629614    1.173809
      3          1           0        3.053614   -1.916313    1.160805
      4          1           0       -2.540416   -2.844982   -1.014303
      5          1           0        3.759606   -0.532918    2.078246
      6          1           0        3.765324   -0.521541    0.273951
      7          6           0       -2.401542   -0.705499    0.492563
      8          6           0       -1.333656    0.193207    1.141271
      9          6           0        0.021967   -0.470338    0.950187
     10          7           0       -1.303305    1.529149    0.515945
     11          8           0        0.155929   -1.611463    0.516920
     12          8           0        1.024922    0.353393    1.298656
     13          6           0       -2.121889   -0.918337   -0.967113
     14          1           0       -3.392299   -0.247402    0.596497
     15          1           0       -2.419177   -1.669900    1.004436
     16          1           0       -1.526304    0.239474    2.221388
     17          1           0       -1.503902    0.960751   -1.170400
     18          1           0       -0.410560    1.997532    0.666151
     19          1           0        1.924402   -0.039926    1.230819
     20          7           0       -1.700457    0.069239   -1.694920
     21          8           0       -2.336855   -2.071648   -1.575178
     22          1           0       -2.071901    2.128557    0.807834
     23          1           0       -1.551618   -0.029761   -2.487172
 ---------------------------------------------------------------------
                    Distance matrix (angstroms):
                    1          2          3          4          5
     1  C    0.000000
     2  H    1.089717   0.000000
     3  H    1.092532   1.768935   0.000000
     4  H    6.942078   7.754589   6.073442   0.000000
     5  H    1.093732   1.761058   1.803858   7.389167   0.000000
     6  H    1.093462   1.762467   1.799563   6.842538   1.804340
     7  C    6.278222   7.291606   5.627730   2.620556   6.364270
     8  C    5.328288   6.398015   4.868120   3.915783   5.229388
     9  C    3.867794   4.920879   3.365425   4.007987   3.904662
    10  N    5.819023   6.902903   5.591940   4.796365   5.685594
    11  O    3.756056   4.689455   2.983974   3.337138   4.072774
    12  O    3.176523   4.265257   3.047319   5.318930   2.978557
    13  C    6.323476   7.279405   5.684173   1.972143   6.634362
    14  H    7.294799   8.327247   6.682328   3.172979   7.309368
    15  H    6.268167   7.220389   5.480567   2.338979   6.373630
    16  H    5.624999   6.678459   5.171838   4.583883   5.343962
    17  H    6.188869   7.206477   5.872220   3.947446   6.363118
    18  H    5.296189   6.368250   5.250083   5.550689   5.078138
    19  H    2.197438   3.285472   2.191084   5.730926   2.080661
    20  N    6.341389   7.304801   5.890567   3.108288   6.664208
    21  O    6.809871   7.659919   6.047056   0.976762   7.272004
    22  H    6.752626   7.840192   6.538842   5.317497   6.534820
    23  H    6.597831   7.502939   6.170492   3.327541   7.021774
                    6          7          8          9         10
     6  H    0.000000
     7  C    6.173481   0.000000
     8  C    5.221370   1.539115   0.000000
     9  C    3.804292   2.477522   1.521354   0.000000
    10  N    5.473106   2.490045   1.475362   2.437797   0.000000
    11  O    3.778186   2.713305   2.421882   1.227938   3.463063
    12  O    3.053740   3.675826   2.369245   1.343831   2.723175
    13  C    6.029674   1.501385   2.510403   2.910818   2.976530
    14  H    7.170129   1.096474   2.174610   3.439769   2.743450
    15  H    6.332486   1.091969   2.160613   2.720492   3.423114
    16  H    5.689726   2.155888   1.098138   2.125307   2.149773
    17  H    5.661103   2.519443   2.441706   2.978788   1.790831
    18  H    4.892602   3.361625   2.081690   2.521535   1.019283
    19  H    2.129916   4.438671   3.267616   1.970601   3.659389
    20  N    5.839541   2.424215   2.862497   3.202261   2.678990
    21  O    6.561912   2.479133   3.676285   3.808636   4.290310
    22  H    6.432825   2.870528   2.098038   3.340478   1.017462
    23  H    6.011283   3.171405   3.641815   3.806010   3.392723
                   11         12         13         14         15
    11  O    0.000000
    12  O    2.286245   0.000000
    13  C    2.805572   4.080861   0.000000
    14  H    3.802225   4.512852   2.123434   0.000000
    15  H    2.621499   4.005259   2.130782   1.771124   0.000000
    16  H    3.026729   2.715358   3.444094   2.521757   2.433907
    17  H    3.495479   3.586095   1.988519   2.854401   3.533832
    18  H    3.656231   2.272415   3.754796   3.733008   4.195121
    19  H    2.471210   0.984055   4.687748   5.358426   4.644862
    20  N    3.341132   4.058317   1.297157   2.865865   3.290545
    21  O    3.286734   5.043936   1.321393   3.026220   2.612009
    22  H    4.362981   3.603113   3.526542   2.726407   3.819362
    23  H    3.800272   4.595417   1.850772   3.597844   3.953990
                   16         17         18         19         20
    16  H    0.000000
    17  H    3.467704   0.000000
    18  H    2.598926   2.375549   0.000000
    19  H    3.600926   4.303542   3.149942   0.000000
    20  N    3.923872   1.052876   3.310106   4.659557   0.000000
    21  O    4.517986   3.170662   5.029155   5.491796   2.236680
    22  H    2.421661   2.366391   1.672511   4.566362   3.262290
    23  H    4.716318   1.648416   3.918593   5.089821   0.812168
                   21         22         23
    21  O    0.000000
    22  H    4.836390   0.000000
    23  H    2.370155   3.973171   0.000000
 Stoichiometry    C5H13N2O3(1+)
 Framework group  C1[X(C5H13N2O3)]
 Deg. of freedom    63
 Full point group                 C1      NOp   1
 Largest Abelian subgroup         C1      NOp   1
 Largest concise Abelian subgroup C1      NOp   1
                         Standard orientation:                         
 ---------------------------------------------------------------------
 Center     Atomic      Atomic             Coordinates (Angstroms)
 Number     Number       Type             X           Y           Z
 ---------------------------------------------------------------------
      1          6           0       -4.369797   -0.938409    0.322248
      2          1           0       -5.274721   -1.540235    0.402271
      3          1           0       -3.655302   -1.474887   -0.306491
      4          1           0        2.341694   -2.254072   -0.868281
      5          1           0       -4.649796    0.019193   -0.125915
      6          1           0       -3.972477   -0.800822    1.331637
      7          6           0        1.652516    0.271986   -0.974964
      8          6           0        0.422553    1.154949   -0.698480
      9          6           0       -0.762945    0.241614   -0.424742
     10          7           0        0.636898    2.023127    0.474984
     11          8           0       -0.728070   -0.973719   -0.596736
     12          8           0       -1.819553    0.933418    0.034463
     13          6           0        1.944905   -0.634870    0.185329
     14          1           0        2.532332    0.899749   -1.159604
     15          1           0        1.470953   -0.327754   -1.869247
     16          1           0        0.192480    1.726710   -1.607359
     17          1           0        1.458026    0.791317    1.482689
     18          1           0       -0.244252    2.335271    0.881282
     19          1           0       -2.628246    0.395291    0.191945
     20          7           0        1.834472   -0.188323    1.398183
     21          8           0        2.368845   -1.877028    0.032365
     22          1           0        1.240584    2.819251    0.282686
     23          1           0        1.995967   -0.665629    2.035140
 ---------------------------------------------------------------------
 Rotational constants (GHZ):      1.8077371      0.7184131      0.6064227
 Leave Link  202 at Thu Mar 12 19:02:39 2020, MaxMem=    33554432 cpu:         0.0
 (Enter /usr/local/gaussian09d01/g09/l301.exe)
 Standard basis: 6-31G (6D, 7F)
 Ernie: Thresh=  0.10000D-02 Tol=  0.10000D-05 Strict=F.
 There are   116 symmetry adapted cartesian basis functions of A   symmetry.
 There are   116 symmetry adapted basis functions of A   symmetry.
   116 basis functions,   272 primitive gaussians,   116 cartesian basis functions
    40 alpha electrons       40 beta electrons
       nuclear repulsion energy       588.0269354690 Hartrees.
 IExCor= 4336 DFT=T Ex+Corr=M062X ExCW=0 ScaHFX=  0.540000
 ScaDFX=  1.000000  1.000000  1.000000  1.000000 ScalE2=  1.000000  1.000000
 IRadAn=      0 IRanWt=     -1 IRanGd=            0 ICorTp=0 IEmpDi=  4
 NAtoms=   23 NActive=   23 NUniq=   23 SFac= 1.00D+00 NAtFMM=   60 NAOKFM=F Big=F
 Integral buffers will be    131072 words long.
 Raffenetti 2 integral format.
 Two-electron integral symmetry is turned on.
 Leave Link  301 at Thu Mar 12 19:02:39 2020, MaxMem=    33554432 cpu:         0.0
 (Enter /usr/local/gaussian09d01/g09/l302.exe)
 NPDir=0 NMtPBC=     1 NCelOv=     1 NCel=       1 NClECP=     1 NCelD=      1
         NCelK=      1 NCelE2=     1 NClLst=     1 CellRange=     0.0.
 One-electron integrals computed using PRISM.
 NBasis=   116 RedAO= T EigKep=  3.51D-03  NBF=   116
 NBsUse=   116 1.00D-06 EigRej= -1.00D+00 NBFU=   116
 Precomputing XC quadrature grid using
 IXCGrd= 4 IRadAn=           0 IRanWt=          -1 IRanGd=           0 AccXCQ= 0.00D+00.
 Generated NRdTot=       0 NPtTot=           0 NUsed=           0 NTot=          32
 NSgBfM=   115   115   115   115   115 MxSgAt=    23 MxSgA2=    23.
 Leave Link  302 at Thu Mar 12 19:02:39 2020, MaxMem=    33554432 cpu:         0.3
 (Enter /usr/local/gaussian09d01/g09/l303.exe)
 DipDrv:  MaxL=1.
 Leave Link  303 at Thu Mar 12 19:02:39 2020, MaxMem=    33554432 cpu:         0.0
 (Enter /usr/local/gaussian09d01/g09/l401.exe)
 ExpMin= 1.61D-01 ExpMax= 5.48D+03 ExpMxC= 8.25D+02 IAcc=1 IRadAn=         1 AccDes= 0.00D+00
 Harris functional with IExCor= 1009 and IRadAn=       1 diagonalized for initial guess.
 HarFok:  IExCor= 1009 AccDes= 0.00D+00 IRadAn=         1 IDoV= 1 UseB2=F ITyADJ=14
 ICtDFT=  3500011 ScaDFX=  1.000000  1.000000  1.000000  1.000000
 FoFCou: FMM=F IPFlag=           0 FMFlag=      100000 FMFlg1=           0
         NFxFlg=           0 DoJE=T BraDBF=F KetDBF=T FulRan=T
         wScrn=  0.000000 ICntrl=     500 IOpCl=  0 I1Cent=   200000004 NGrid=           0
         NMat0=    1 NMatS0=      1 NMatT0=    0 NMatD0=    1 NMtDS0=    0 NMtDT0=    0
 Petite list used in FoFCou.
 Harris En= -532.699198489705    
 JPrj=0 DoOrth=F DoCkMO=F.
 Leave Link  401 at Thu Mar 12 19:02:40 2020, MaxMem=    33554432 cpu:         0.8
 (Enter /usr/local/gaussian09d01/g09/l502.exe)
 Closed shell SCF:
 Using DIIS extrapolation, IDIIS=  1040.
 Integral symmetry usage will be decided dynamically.
 Keep R1 ints in memory in canonical form, NReq=24030401.
 IVT=       60528 IEndB=       60528 NGot=    33554432 MDV=    10465614
 LenX=    10465614 LenY=    10451717
 Requested convergence on RMS density matrix=1.00D-08 within 128 cycles.
 Requested convergence on MAX density matrix=1.00D-06.
 Requested convergence on             energy=1.00D-06.
 No special actions if energy rises.
 FoFCou: FMM=F IPFlag=           0 FMFlag=           0 FMFlg1=           0
         NFxFlg=           0 DoJE=F BraDBF=F KetDBF=F FulRan=T
         wScrn=  0.000000 ICntrl=     600 IOpCl=  0 I1Cent=           0 NGrid=           0
         NMat0=    1 NMatS0=   6786 NMatT0=    0 NMatD0=    1 NMtDS0=    0 NMtDT0=    0
 Symmetry not used in FoFCou.
 Integral accuracy reduced to 1.0D-05 until final iterations.

 Cycle   1  Pass 0  IDiag  1:
 E= -532.577843113861    
 DIIS: error= 5.66D-02 at cycle   1 NSaved=   1.
 NSaved= 1 IEnMin= 1 EnMin= -532.577843113861     IErMin= 1 ErrMin= 5.66D-02
 ErrMax= 5.66D-02  0.00D+00 EMaxC= 1.00D-01 BMatC= 3.40D-01 BMatP= 3.40D-01
 IDIUse=3 WtCom= 4.34D-01 WtEn= 5.66D-01
 Coeff-Com:  0.100D+01
 Coeff-En:   0.100D+01
 Coeff:      0.100D+01
 Gap=     0.251 Goal=   None    Shift=    0.000
 GapD=    0.251 DampG=1.000 DampE=0.500 DampFc=0.5000 IDamp=-1.
 Damping current iteration by 5.00D-01
 RMSDP=8.59D-03 MaxDP=1.63D-01              OVMax= 1.75D-01

 Cycle   2  Pass 0  IDiag  1:
 E= -532.713978473695     Delta-E=       -0.136135359835 Rises=F Damp=T
 DIIS: error= 9.32D-03 at cycle   2 NSaved=   2.
 NSaved= 2 IEnMin= 2 EnMin= -532.713978473695     IErMin= 2 ErrMin= 9.32D-03
 ErrMax= 9.32D-03  0.00D+00 EMaxC= 1.00D-01 BMatC= 1.92D-02 BMatP= 3.40D-01
 IDIUse=3 WtCom= 9.07D-01 WtEn= 9.32D-02
 Coeff-Com:  0.317D-01 0.968D+00
 Coeff-En:   0.386D-01 0.961D+00
 Coeff:      0.323D-01 0.968D+00
 Gap=     0.356 Goal=   None    Shift=    0.000
 RMSDP=2.13D-03 MaxDP=3.48D-02 DE=-1.36D-01 OVMax= 1.10D-01

 Cycle   3  Pass 0  IDiag  1:
 E= -532.856122029533     Delta-E=       -0.142143555837 Rises=F Damp=F
 DIIS: error= 1.19D-02 at cycle   3 NSaved=   3.
 NSaved= 3 IEnMin= 3 EnMin= -532.856122029533     IErMin= 2 ErrMin= 9.32D-03
 ErrMax= 1.19D-02  0.00D+00 EMaxC= 1.00D-01 BMatC= 1.46D-02 BMatP= 1.92D-02
 IDIUse=3 WtCom= 8.81D-01 WtEn= 1.19D-01
 Coeff-Com: -0.217D-01 0.467D+00 0.555D+00
 Coeff-En:   0.000D+00 0.000D+00 0.100D+01
 Coeff:     -0.191D-01 0.411D+00 0.608D+00
 Gap=     0.330 Goal=   None    Shift=    0.000
 RMSDP=1.38D-03 MaxDP=3.61D-02 DE=-1.42D-01 OVMax= 5.61D-02

 Cycle   4  Pass 0  IDiag  1:
 E= -532.865503497953     Delta-E=       -0.009381468420 Rises=F Damp=F
 DIIS: error= 7.49D-03 at cycle   4 NSaved=   4.
 NSaved= 4 IEnMin= 4 EnMin= -532.865503497953     IErMin= 4 ErrMin= 7.49D-03
 ErrMax= 7.49D-03  0.00D+00 EMaxC= 1.00D-01 BMatC= 3.75D-03 BMatP= 1.46D-02
 IDIUse=3 WtCom= 9.25D-01 WtEn= 7.49D-02
 Coeff-Com: -0.654D-02 0.419D-01 0.342D+00 0.622D+00
 Coeff-En:   0.000D+00 0.000D+00 0.199D+00 0.801D+00
 Coeff:     -0.605D-02 0.388D-01 0.331D+00 0.636D+00
 Gap=     0.327 Goal=   None    Shift=    0.000
 RMSDP=5.44D-04 MaxDP=1.19D-02 DE=-9.38D-03 OVMax= 1.92D-02

 Cycle   5  Pass 0  IDiag  1:
 E= -532.868175611483     Delta-E=       -0.002672113530 Rises=F Damp=F
 DIIS: error= 1.29D-03 at cycle   5 NSaved=   5.
 NSaved= 5 IEnMin= 5 EnMin= -532.868175611483     IErMin= 5 ErrMin= 1.29D-03
 ErrMax= 1.29D-03  0.00D+00 EMaxC= 1.00D-01 BMatC= 1.94D-04 BMatP= 3.75D-03
 IDIUse=3 WtCom= 9.87D-01 WtEn= 1.29D-02
 Coeff-Com: -0.737D-03-0.727D-02 0.141D+00 0.332D+00 0.535D+00
 Coeff-En:   0.000D+00 0.000D+00 0.000D+00 0.000D+00 0.100D+01
 Coeff:     -0.728D-03-0.718D-02 0.139D+00 0.327D+00 0.541D+00
 Gap=     0.325 Goal=   None    Shift=    0.000
 RMSDP=1.16D-04 MaxDP=2.14D-03 DE=-2.67D-03 OVMax= 4.13D-03

 Cycle   6  Pass 0  IDiag  1:
 E= -532.868347689293     Delta-E=       -0.000172077810 Rises=F Damp=F
 DIIS: error= 2.87D-04 at cycle   6 NSaved=   6.
 NSaved= 6 IEnMin= 6 EnMin= -532.868347689293     IErMin= 6 ErrMin= 2.87D-04
 ErrMax= 2.87D-04  0.00D+00 EMaxC= 1.00D-01 BMatC= 4.80D-06 BMatP= 1.94D-04
 IDIUse=3 WtCom= 9.97D-01 WtEn= 2.87D-03
 Coeff-Com:  0.608D-03-0.437D-02 0.225D-01 0.466D-01 0.151D+00 0.784D+00
 Coeff-En:   0.000D+00 0.000D+00 0.000D+00 0.000D+00 0.000D+00 0.100D+01
 Coeff:      0.606D-03-0.436D-02 0.224D-01 0.465D-01 0.150D+00 0.785D+00
 Gap=     0.326 Goal=   None    Shift=    0.000
 RMSDP=2.65D-05 MaxDP=4.17D-04 DE=-1.72D-04 OVMax= 5.56D-04

 Cycle   7  Pass 0  IDiag  1:
 E= -532.868352116214     Delta-E=       -0.000004426921 Rises=F Damp=F
 DIIS: error= 9.46D-05 at cycle   7 NSaved=   7.
 NSaved= 7 IEnMin= 7 EnMin= -532.868352116214     IErMin= 7 ErrMin= 9.46D-05
 ErrMax= 9.46D-05  0.00D+00 EMaxC= 1.00D-01 BMatC= 6.60D-07 BMatP= 4.80D-06
 IDIUse=1 WtCom= 1.00D+00 WtEn= 0.00D+00
 Coeff-Com:  0.440D-03-0.781D-03-0.109D-01-0.327D-01-0.185D-01 0.263D+00
 Coeff-Com:  0.800D+00
 Coeff:      0.440D-03-0.781D-03-0.109D-01-0.327D-01-0.185D-01 0.263D+00
 Coeff:      0.800D+00
 Gap=     0.326 Goal=   None    Shift=    0.000
 RMSDP=1.38D-05 MaxDP=2.12D-04 DE=-4.43D-06 OVMax= 3.17D-04

 Cycle   8  Pass 0  IDiag  1:
 E= -532.868352845436     Delta-E=       -0.000000729222 Rises=F Damp=F
 DIIS: error= 2.84D-05 at cycle   8 NSaved=   8.
 NSaved= 8 IEnMin= 8 EnMin= -532.868352845436     IErMin= 8 ErrMin= 2.84D-05
 ErrMax= 2.84D-05  0.00D+00 EMaxC= 1.00D-01 BMatC= 7.94D-08 BMatP= 6.60D-07
 IDIUse=1 WtCom= 1.00D+00 WtEn= 0.00D+00
 Coeff-Com:  0.136D-03 0.557D-04-0.589D-02-0.170D-01-0.208D-01 0.180D-01
 Coeff-Com:  0.314D+00 0.711D+00
 Coeff:      0.136D-03 0.557D-04-0.589D-02-0.170D-01-0.208D-01 0.180D-01
 Coeff:      0.314D+00 0.711D+00
 Gap=     0.326 Goal=   None    Shift=    0.000
 RMSDP=4.07D-06 MaxDP=6.70D-05 DE=-7.29D-07 OVMax= 1.06D-04

 Initial convergence to 1.0D-05 achieved.  Increase integral accuracy.
 Cycle   9  Pass 1  IDiag  1:
 E= -532.868582105618     Delta-E=       -0.000229260182 Rises=F Damp=F
 DIIS: error= 1.36D-04 at cycle   1 NSaved=   1.
 NSaved= 1 IEnMin= 1 EnMin= -532.868582105618     IErMin= 1 ErrMin= 1.36D-04
 ErrMax= 1.36D-04  0.00D+00 EMaxC= 1.00D-01 BMatC= 1.73D-06 BMatP= 1.73D-06
 IDIUse=3 WtCom= 9.99D-01 WtEn= 1.36D-03
 Coeff-Com:  0.100D+01
 Coeff-En:   0.100D+01
 Coeff:      0.100D+01
 Gap=     0.326 Goal=   None    Shift=    0.000
 RMSDP=4.07D-06 MaxDP=6.70D-05 DE=-2.29D-04 OVMax= 2.03D-04

 Cycle  10  Pass 1  IDiag  1:
 E= -532.868583739211     Delta-E=       -0.000001633593 Rises=F Damp=F
 DIIS: error= 7.59D-05 at cycle   2 NSaved=   2.
 NSaved= 2 IEnMin= 2 EnMin= -532.868583739211     IErMin= 2 ErrMin= 7.59D-05
 ErrMax= 7.59D-05  0.00D+00 EMaxC= 1.00D-01 BMatC= 3.22D-07 BMatP= 1.73D-06
 IDIUse=1 WtCom= 1.00D+00 WtEn= 0.00D+00
 Coeff-Com:  0.217D+00 0.783D+00
 Coeff:      0.217D+00 0.783D+00
 Gap=     0.326 Goal=   None    Shift=    0.000
 RMSDP=7.12D-06 MaxDP=1.36D-04 DE=-1.63D-06 OVMax= 1.50D-04

 Cycle  11  Pass 1  IDiag  1:
 E= -532.868583972389     Delta-E=       -0.000000233178 Rises=F Damp=F
 DIIS: error= 3.27D-05 at cycle   3 NSaved=   3.
 NSaved= 3 IEnMin= 3 EnMin= -532.868583972389     IErMin= 3 ErrMin= 3.27D-05
 ErrMax= 3.27D-05  0.00D+00 EMaxC= 1.00D-01 BMatC= 1.17D-07 BMatP= 3.22D-07
 IDIUse=1 WtCom= 1.00D+00 WtEn= 0.00D+00
 Coeff-Com: -0.358D-01 0.362D+00 0.674D+00
 Coeff:     -0.358D-01 0.362D+00 0.674D+00
 Gap=     0.326 Goal=   None    Shift=    0.000
 RMSDP=3.31D-06 MaxDP=7.19D-05 DE=-2.33D-07 OVMax= 6.27D-05

 Cycle  12  Pass 1  IDiag  1:
 E= -532.868584071231     Delta-E=       -0.000000098842 Rises=F Damp=F
 DIIS: error= 7.88D-06 at cycle   4 NSaved=   4.
 NSaved= 4 IEnMin= 4 EnMin= -532.868584071231     IErMin= 4 ErrMin= 7.88D-06
 ErrMax= 7.88D-06  0.00D+00 EMaxC= 1.00D-01 BMatC= 8.67D-09 BMatP= 1.17D-07
 IDIUse=1 WtCom= 1.00D+00 WtEn= 0.00D+00
 Coeff-Com: -0.294D-01 0.152D+00 0.343D+00 0.535D+00
 Coeff:     -0.294D-01 0.152D+00 0.343D+00 0.535D+00
 Gap=     0.326 Goal=   None    Shift=    0.000
 RMSDP=7.38D-07 MaxDP=1.66D-05 DE=-9.88D-08 OVMax= 2.07D-05

 Cycle  13  Pass 1  IDiag  1:
 E= -532.868584078189     Delta-E=       -0.000000006959 Rises=F Damp=F
 DIIS: error= 2.05D-06 at cycle   5 NSaved=   5.
 NSaved= 5 IEnMin= 5 EnMin= -532.868584078189     IErMin= 5 ErrMin= 2.05D-06
 ErrMax= 2.05D-06  0.00D+00 EMaxC= 1.00D-01 BMatC= 3.17D-10 BMatP= 8.67D-09
 IDIUse=1 WtCom= 1.00D+00 WtEn= 0.00D+00
 Coeff-Com: -0.433D-02 0.301D-02 0.197D-01 0.146D+00 0.836D+00
 Coeff:     -0.433D-02 0.301D-02 0.197D-01 0.146D+00 0.836D+00
 Gap=     0.326 Goal=   None    Shift=    0.000
 RMSDP=3.01D-07 MaxDP=5.46D-06 DE=-6.96D-09 OVMax= 6.78D-06

 Cycle  14  Pass 1  IDiag  1:
 E= -532.868584078424     Delta-E=       -0.000000000235 Rises=F Damp=F
 DIIS: error= 1.56D-06 at cycle   6 NSaved=   6.
 NSaved= 6 IEnMin= 6 EnMin= -532.868584078424     IErMin= 6 ErrMin= 1.56D-06
 ErrMax= 1.56D-06  0.00D+00 EMaxC= 1.00D-01 BMatC= 1.70D-10 BMatP= 3.17D-10
 IDIUse=1 WtCom= 1.00D+00 WtEn= 0.00D+00
 Coeff-Com:  0.158D-02-0.182D-01-0.343D-01 0.198D-01 0.501D+00 0.530D+00
 Coeff:      0.158D-02-0.182D-01-0.343D-01 0.198D-01 0.501D+00 0.530D+00
 Gap=     0.326 Goal=   None    Shift=    0.000
 RMSDP=1.06D-07 MaxDP=3.05D-06 DE=-2.35D-10 OVMax= 5.36D-06

 Cycle  15  Pass 1  IDiag  1:
 E= -532.868584078547     Delta-E=       -0.000000000123 Rises=F Damp=F
 DIIS: error= 3.42D-07 at cycle   7 NSaved=   7.
 NSaved= 7 IEnMin= 7 EnMin= -532.868584078547     IErMin= 7 ErrMin= 3.42D-07
 ErrMax= 3.42D-07  0.00D+00 EMaxC= 1.00D-01 BMatC= 6.40D-12 BMatP= 1.70D-10
 IDIUse=1 WtCom= 1.00D+00 WtEn= 0.00D+00
 Coeff-Com:  0.774D-03-0.548D-02-0.117D-01-0.493D-02 0.599D-01 0.185D+00
 Coeff-Com:  0.776D+00
 Coeff:      0.774D-03-0.548D-02-0.117D-01-0.493D-02 0.599D-01 0.185D+00
 Coeff:      0.776D+00
 Gap=     0.326 Goal=   None    Shift=    0.000
 RMSDP=3.89D-08 MaxDP=6.93D-07 DE=-1.23D-10 OVMax= 9.56D-07

 Cycle  16  Pass 1  IDiag  1:
 E= -532.868584078557     Delta-E=       -0.000000000010 Rises=F Damp=F
 DIIS: error= 1.04D-07 at cycle   8 NSaved=   8.
 NSaved= 8 IEnMin= 8 EnMin= -532.868584078557     IErMin= 8 ErrMin= 1.04D-07
 ErrMax= 1.04D-07  0.00D+00 EMaxC= 1.00D-01 BMatC= 9.95D-13 BMatP= 6.40D-12
 IDIUse=1 WtCom= 1.00D+00 WtEn= 0.00D+00
 Coeff-Com:  0.138D-03 0.165D-04-0.703D-03-0.444D-02-0.456D-01 0.189D-01
 Coeff-Com:  0.345D+00 0.687D+00
 Coeff:      0.138D-03 0.165D-04-0.703D-03-0.444D-02-0.456D-01 0.189D-01
 Coeff:      0.345D+00 0.687D+00
 Gap=     0.326 Goal=   None    Shift=    0.000
 RMSDP=1.28D-08 MaxDP=2.16D-07 DE=-1.05D-11 OVMax= 3.73D-07

 Cycle  17  Pass 1  IDiag  1:
 E= -532.868584078557     Delta-E=        0.000000000000 Rises=F Damp=F
 DIIS: error= 2.76D-08 at cycle   9 NSaved=   9.
 NSaved= 9 IEnMin= 8 EnMin= -532.868584078557     IErMin= 9 ErrMin= 2.76D-08
 ErrMax= 2.76D-08  0.00D+00 EMaxC= 1.00D-01 BMatC= 8.80D-14 BMatP= 9.95D-13
 IDIUse=1 WtCom= 1.00D+00 WtEn= 0.00D+00
 Coeff-Com: -0.300D-04 0.569D-03 0.971D-03-0.956D-03-0.232D-01-0.105D-01
 Coeff-Com:  0.350D-01 0.244D+00 0.754D+00
 Coeff:     -0.300D-04 0.569D-03 0.971D-03-0.956D-03-0.232D-01-0.105D-01
 Coeff:      0.350D-01 0.244D+00 0.754D+00
 Gap=     0.326 Goal=   None    Shift=    0.000
 RMSDP=4.60D-09 MaxDP=8.27D-08 DE= 0.00D+00 OVMax= 1.84D-07

 SCF Done:  E(RM062X) =  -532.868584079     A.U. after   17 cycles
            NFock= 17  Conv=0.46D-08     -V/T= 2.0045
 KE= 5.304603905609D+02 PE=-2.408045208748D+03 EE= 7.566892986400D+02
 Leave Link  502 at Thu Mar 12 19:03:34 2020, MaxMem=    33554432 cpu:        54.5
 (Enter /usr/local/gaussian09d01/g09/l601.exe)
 Copying SCF densities to generalized density rwf, IOpCl= 0 IROHF=0.

 **********************************************************************

            Population analysis using the SCF density.

 **********************************************************************

 Orbital symmetries:
       Occupied  (A) (A) (A) (A) (A) (A) (A) (A) (A) (A) (A) (A)
                 (A) (A) (A) (A) (A) (A) (A) (A) (A) (A) (A) (A)
                 (A) (A) (A) (A) (A) (A) (A) (A) (A) (A) (A) (A)
                 (A) (A) (A) (A)
       Virtual   (A) (A) (A) (A) (A) (A) (A) (A) (A) (A) (A) (A)
                 (A) (A) (A) (A) (A) (A) (A) (A) (A) (A) (A) (A)
                 (A) (A) (A) (A) (A) (A) (A) (A) (A) (A) (A) (A)
                 (A) (A) (A) (A) (A) (A) (A) (A) (A) (A) (A) (A)
                 (A) (A) (A) (A) (A) (A) (A) (A) (A) (A) (A) (A)
                 (A) (A) (A) (A) (A) (A) (A) (A) (A) (A) (A) (A)
                 (A) (A) (A) (A)
 The electronic state is 1-A.
 Alpha  occ. eigenvalues --  -19.89112 -19.84228 -19.80759 -14.97558 -14.93056
 Alpha  occ. eigenvalues --  -10.90313 -10.86392 -10.78173 -10.75750 -10.63130
 Alpha  occ. eigenvalues --   -1.43666  -1.40460  -1.31459  -1.28105  -1.18822
 Alpha  occ. eigenvalues --   -1.07381  -0.98141  -0.94258  -0.90199  -0.89515
 Alpha  occ. eigenvalues --   -0.85615  -0.79805  -0.77885  -0.74661  -0.73855
 Alpha  occ. eigenvalues --   -0.73528  -0.72823  -0.69477  -0.66624  -0.65025
 Alpha  occ. eigenvalues --   -0.64052  -0.62293  -0.60894  -0.57246  -0.57107
 Alpha  occ. eigenvalues --   -0.56930  -0.56000  -0.54386  -0.51815  -0.49543
 Alpha virt. eigenvalues --   -0.16972  -0.12456  -0.07158  -0.03007  -0.00828
 Alpha virt. eigenvalues --    0.00419   0.01404   0.03293   0.04487   0.04852
 Alpha virt. eigenvalues --    0.06294   0.07544   0.08519   0.10407   0.11012
 Alpha virt. eigenvalues --    0.11206   0.12076   0.12722   0.15969   0.18441
 Alpha virt. eigenvalues --    0.20201   0.23272   0.27535   0.38603   0.40567
 Alpha virt. eigenvalues --    0.43052   0.45657   0.46777   0.48078   0.48195
 Alpha virt. eigenvalues --    0.49423   0.51574   0.51956   0.54556   0.57956
 Alpha virt. eigenvalues --    0.58249   0.59869   0.63101   0.63999   0.67498
 Alpha virt. eigenvalues --    0.68109   0.70766   0.74270   0.75126   0.76712
 Alpha virt. eigenvalues --    0.78465   0.80502   0.83195   0.84078   0.85495
 Alpha virt. eigenvalues --    0.87210   0.87647   0.87988   0.90234   0.92005
 Alpha virt. eigenvalues --    0.92138   0.94454   0.94951   0.96350   0.99013
 Alpha virt. eigenvalues --    1.03020   1.04319   1.09079   1.11408   1.11914
 Alpha virt. eigenvalues --    1.15550   1.19028   1.27718   1.28541   1.34411
 Alpha virt. eigenvalues --    1.43250   1.53619   1.63529   1.76083   1.77653
 Alpha virt. eigenvalues --    1.87111
          Condensed to atoms (all electrons):
               1          2          3          4          5          6
     1  C    5.189425   0.375548   0.371651   0.000000   0.370115   0.370779
     2  H    0.375548   0.468301  -0.017899   0.000000  -0.019765  -0.020183
     3  H    0.371651  -0.017899   0.521442   0.000000  -0.029612  -0.030177
     4  H    0.000000   0.000000   0.000000   0.286041   0.000000   0.000000
     5  H    0.370115  -0.019765  -0.029612   0.000000   0.538263  -0.032266
     6  H    0.370779  -0.020183  -0.030177   0.000000  -0.032266   0.545140
     7  C    0.000000   0.000000  -0.000001  -0.006012   0.000000   0.000000
     8  C   -0.000004   0.000001   0.000083   0.000128  -0.000011  -0.000007
     9  C    0.000284   0.000037   0.001474   0.000058  -0.000155  -0.000132
    10  N    0.000000   0.000000  -0.000001   0.000023   0.000000   0.000000
    11  O   -0.001298   0.000015   0.003240   0.000345   0.000043   0.000016
    12  O   -0.005282   0.000175  -0.001613   0.000000  -0.000768  -0.000636
    13  C    0.000000   0.000000   0.000000  -0.015432   0.000000   0.000000
    14  H    0.000000   0.000000   0.000000   0.000024   0.000000   0.000000
    15  H    0.000000   0.000000   0.000000   0.003772   0.000000   0.000000
    16  H    0.000001   0.000000  -0.000002   0.000002   0.000000   0.000000
    17  H    0.000000   0.000000   0.000000  -0.000013   0.000000   0.000000
    18  H   -0.000001   0.000000   0.000000   0.000000   0.000000   0.000000
    19  H    0.027150  -0.000949   0.002072   0.000000   0.005226   0.004742
    20  N    0.000000   0.000000   0.000000   0.005670   0.000000   0.000000
    21  O    0.000000   0.000000   0.000000   0.257328   0.000000   0.000000
    22  H    0.000000   0.000000   0.000000  -0.000001   0.000000   0.000000
    23  H    0.000000   0.000000   0.000000  -0.000098   0.000000   0.000000
               7          8          9         10         11         12
     1  C    0.000000  -0.000004   0.000284   0.000000  -0.001298  -0.005282
     2  H    0.000000   0.000001   0.000037   0.000000   0.000015   0.000175
     3  H   -0.000001   0.000083   0.001474  -0.000001   0.003240  -0.001613
     4  H   -0.006012   0.000128   0.000058   0.000023   0.000345   0.000000
     5  H    0.000000  -0.000011  -0.000155   0.000000   0.000043  -0.000768
     6  H    0.000000  -0.000007  -0.000132   0.000000   0.000016  -0.000636
     7  C    5.446607   0.216596  -0.048100  -0.073407   0.007769   0.005364
     8  C    0.216596   5.570683   0.151039   0.193234  -0.124334  -0.148124
     9  C   -0.048100   0.151039   4.754364  -0.049350   0.494120   0.196737
    10  N   -0.073407   0.193234  -0.049350   7.096093   0.002205   0.001767
    11  O    0.007769  -0.124334   0.494120   0.002205   8.125087  -0.108457
    12  O    0.005364  -0.148124   0.196737   0.001767  -0.108457   8.415318
    13  C    0.257870  -0.016650  -0.007476  -0.008348   0.011783  -0.000508
    14  H    0.375668  -0.027547   0.005571  -0.001448   0.000420  -0.000025
    15  H    0.366017  -0.027354  -0.001913   0.003754   0.004655   0.000131
    16  H   -0.043216   0.385689  -0.026830  -0.035617   0.001072   0.000895
    17  H   -0.012099  -0.010781  -0.000585   0.096544   0.000188  -0.000077
    18  H    0.004826  -0.034158  -0.007430   0.320776   0.000224   0.013154
    19  H   -0.000158   0.005376  -0.018838  -0.000117  -0.000700   0.236993
    20  N   -0.098799   0.004124   0.000046  -0.075184  -0.003459   0.000056
    21  O   -0.066488   0.002759  -0.000502  -0.000167  -0.001681  -0.000001
    22  H   -0.000913  -0.029184   0.004127   0.322222  -0.000080  -0.000002
    23  H    0.005638  -0.000364  -0.000112   0.001647   0.000055   0.000006
              13         14         15         16         17         18
     1  C    0.000000   0.000000   0.000000   0.000001   0.000000  -0.000001
     2  H    0.000000   0.000000   0.000000   0.000000   0.000000   0.000000
     3  H    0.000000   0.000000   0.000000  -0.000002   0.000000   0.000000
     4  H   -0.015432   0.000024   0.003772   0.000002  -0.000013   0.000000
     5  H    0.000000   0.000000   0.000000   0.000000   0.000000   0.000000
     6  H    0.000000   0.000000   0.000000   0.000000   0.000000   0.000000
     7  C    0.257870   0.375668   0.366017  -0.043216  -0.012099   0.004826
     8  C   -0.016650  -0.027547  -0.027354   0.385689  -0.010781  -0.034158
     9  C   -0.007476   0.005571  -0.001913  -0.026830  -0.000585  -0.007430
    10  N   -0.008348  -0.001448   0.003754  -0.035617   0.096544   0.320776
    11  O    0.011783   0.000420   0.004655   0.001072   0.000188   0.000224
    12  O   -0.000508  -0.000025   0.000131   0.000895  -0.000077   0.013154
    13  C    4.613005  -0.034845  -0.030632   0.004014  -0.015524   0.000224
    14  H   -0.034845   0.439345  -0.015708  -0.003260  -0.000237  -0.000053
    15  H   -0.030632  -0.015708   0.463804  -0.000707   0.000428  -0.000101
    16  H    0.004014  -0.003260  -0.000707   0.458705   0.000985   0.000989
    17  H   -0.015524  -0.000237   0.000428   0.000985   0.248488  -0.000467
    18  H    0.000224  -0.000053  -0.000101   0.000989  -0.000467   0.336532
    19  H   -0.000010   0.000002  -0.000002  -0.000246  -0.000020  -0.000256
    20  N    0.355213  -0.001772   0.004466  -0.000311   0.228961   0.000282
    21  O    0.328579   0.001027  -0.002725  -0.000071   0.001137   0.000002
    22  H   -0.000202   0.001609  -0.000070  -0.003801  -0.001554  -0.020682
    23  H   -0.017809  -0.000187  -0.000081   0.000014  -0.004972  -0.000020
              19         20         21         22         23
     1  C    0.027150   0.000000   0.000000   0.000000   0.000000
     2  H   -0.000949   0.000000   0.000000   0.000000   0.000000
     3  H    0.002072   0.000000   0.000000   0.000000   0.000000
     4  H    0.000000   0.005670   0.257328  -0.000001  -0.000098
     5  H    0.005226   0.000000   0.000000   0.000000   0.000000
     6  H    0.004742   0.000000   0.000000   0.000000   0.000000
     7  C   -0.000158  -0.098799  -0.066488  -0.000913   0.005638
     8  C    0.005376   0.004124   0.002759  -0.029184  -0.000364
     9  C   -0.018838   0.000046  -0.000502   0.004127  -0.000112
    10  N   -0.000117  -0.075184  -0.000167   0.322222   0.001647
    11  O   -0.000700  -0.003459  -0.001681  -0.000080   0.000055
    12  O    0.236993   0.000056  -0.000001  -0.000002   0.000006
    13  C   -0.000010   0.355213   0.328579  -0.000202  -0.017809
    14  H    0.000002  -0.001772   0.001027   0.001609  -0.000187
    15  H   -0.000002   0.004466  -0.002725  -0.000070  -0.000081
    16  H   -0.000246  -0.000311  -0.000071  -0.003801   0.000014
    17  H   -0.000020   0.228961   0.001137  -0.001554  -0.004972
    18  H   -0.000256   0.000282   0.000002  -0.020682  -0.000020
    19  H    0.274315   0.000011   0.000000   0.000016  -0.000001
    20  N    0.000011   6.916621  -0.112977   0.000919   0.356245
    21  O    0.000000  -0.112977   8.137213   0.000002  -0.002123
    22  H    0.000016   0.000919   0.000002   0.369294  -0.000027
    23  H   -0.000001   0.356245  -0.002123  -0.000027   0.342113
 Mulliken charges:
               1
     1  C   -0.698370
     2  H    0.214719
     3  H    0.179343
     4  H    0.468164
     5  H    0.168929
     6  H    0.162722
     7  C   -0.337164
     8  C   -0.111193
     9  C    0.553563
    10  N   -0.794626
    11  O   -0.411230
    12  O   -0.605102
    13  C    0.576748
    14  H    0.261415
    15  H    0.232267
    16  H    0.261692
    17  H    0.469598
    18  H    0.386157
    19  H    0.465392
    20  N   -0.580111
    21  O   -0.541313
    22  H    0.358325
    23  H    0.320075
 Sum of Mulliken charges =   1.00000
 Mulliken charges with hydrogens summed into heavy atoms:
               1
     1  C    0.027342
     7  C    0.156518
     8  C    0.150499
     9  C    0.553563
    10  N   -0.050145
    11  O   -0.411230
    12  O   -0.139710
    13  C    0.576748
    20  N    0.209562
    21  O   -0.073149
 Electronic spatial extent (au):  <R**2>=           1991.7291
 Charge=              1.0000 electrons
 Dipole moment (field-independent basis, Debye):
    X=              4.6373    Y=              2.0636    Z=             -0.5219  Tot=              5.1025
 Quadrupole moment (field-independent basis, Debye-Ang):
   XX=            -33.3809   YY=            -48.1272   ZZ=            -48.8961
   XY=             -0.6972   XZ=             -4.3166   YZ=              1.7571
 Traceless Quadrupole moment (field-independent basis, Debye-Ang):
   XX=             10.0871   YY=             -4.6592   ZZ=             -5.4280
   XY=             -0.6972   XZ=             -4.3166   YZ=              1.7571
 Octapole moment (field-independent basis, Debye-Ang**2):
  XXX=            -20.3683  YYY=             15.6420  ZZZ=              9.2150  XYY=             23.8400
  XXY=            -16.8480  XXZ=             -2.4512  XZZ=             20.9379  YZZ=             -4.0024
  YYZ=             -6.4218  XYZ=              8.1763
 Hexadecapole moment (field-independent basis, Debye-Ang**3):
 XXXX=          -1425.5576 YYYY=           -426.1449 ZZZZ=           -201.9343 XXXY=             26.2970
 XXXZ=            -34.4235 YYYX=            -16.4534 YYYZ=             39.7582 ZZZX=             21.5679
 ZZZY=             -0.9680 XXYY=           -329.6856 XXZZ=           -294.2759 YYZZ=           -110.4397
 XXYZ=             13.6632 YYXZ=            -27.4421 ZZXY=            -25.7118
 N-N= 5.880269354690D+02 E-N=-2.408045210048D+03  KE= 5.304603905609D+02
 No NMR shielding tensors so no spin-rotation constants.
 Leave Link  601 at Thu Mar 12 19:03:35 2020, MaxMem=    33554432 cpu:         0.1
 (Enter /usr/local/gaussian09d01/g09/l9999.exe)
 1\1\GINC-KARURA\SP\RM062X\6-31G\C5H13N2O3(1+)\RTAKE\12-Mar-2020\0\\#p 
 M062X/6-31G\\chk calc\\1,1\C,0,3.824482709,-1.14219544,1.17225369\H,0,
 4.799113079,-1.62961423,1.173808707\H,0,3.053614027,-1.916312598,1.160
 804944\H,0,-2.540416453,-2.844981592,-1.014302773\H,0,3.75960642,-0.53
 291794,2.07824618\H,0,3.765323683,-0.52154146,0.273951194\C,0,-2.40154
 2122,-0.705499021,0.492562549\C,0,-1.33365594,0.193207044,1.141270536\
 C,0,0.021967089,-0.47033751,0.950186539\N,0,-1.303304814,1.529148773,0
 .515945207\O,0,0.155929117,-1.611462803,0.51692019\O,0,1.024922388,0.3
 53392554,1.298656\C,0,-2.121889445,-0.918337302,-0.967112723\H,0,-3.39
 229932,-0.247402335,0.596496855\H,0,-2.419176945,-1.669900059,1.004436
 439\H,0,-1.526304416,0.239474424,2.221387894\H,0,-1.503902114,0.960750
 702,-1.170400229\H,0,-0.410560182,1.997532273,0.666150752\H,0,1.924402
 159,-0.039925506,1.230818645\N,0,-1.700457396,0.069239192,-1.694919761
 \O,0,-2.336854815,-2.071648312,-1.575178364\H,0,-2.071900591,2.1285565
 43,0.807834339\H,0,-1.551618467,-0.029760771,-2.487171514\\Version=ES6
 4L-G09RevD.01\State=1-A\HF=-532.8685841\RMSD=4.601e-09\Dipole=-1.90582
 06,0.6120266,-0.152224\Quadrupole=7.4982951,-2.4983596,-4.9999355,2.00
 10289,2.5809836,0.3747923\PG=C01 [X(C5H13N2O3)]\\@


 SUCCESS IS COUNTED SWEETEST
 BY THOSE WHO NE'ER SUCCEED.
 TO COMPREHEND NECTAR
 REQUIRES SOREST NEED.
           EMILY DICKINSON
 Job cpu time:       0 days  0 hours  0 minutes 55.9 seconds.
 File lengths (MBytes):  RWF=      7 Int=      0 D2E=      0 Chk=      2 Scr=      1
 Normal termination of Gaussian 09 at Thu Mar 12 19:03:35 2020.
