 Entering Gaussian System, Link 0=g09
 Input=./n20_h23_16.gjf
 Output=./n20_h23_16.log
 Initial command:
 /usr/local/gaussian09d01/g09/l1.exe "/scr/Gau-20198.inp" -scrdir="/scr/"
 Entering Link 1 = /usr/local/gaussian09d01/g09/l1.exe PID=     20199.
  
 Copyright (c) 1988,1990,1992,1993,1995,1998,2003,2009,2013,
            Gaussian, Inc.  All Rights Reserved.
  
 This is part of the Gaussian(R) 09 program.  It is based on
 the Gaussian(R) 03 system (copyright 2003, Gaussian, Inc.),
 the Gaussian(R) 98 system (copyright 1998, Gaussian, Inc.),
 the Gaussian(R) 94 system (copyright 1995, Gaussian, Inc.),
 the Gaussian 92(TM) system (copyright 1992, Gaussian, Inc.),
 the Gaussian 90(TM) system (copyright 1990, Gaussian, Inc.),
 the Gaussian 88(TM) system (copyright 1988, Gaussian, Inc.),
 the Gaussian 86(TM) system (copyright 1986, Carnegie Mellon
 University), and the Gaussian 82(TM) system (copyright 1983,
 Carnegie Mellon University). Gaussian is a federally registered
 trademark of Gaussian, Inc.
  
 This software contains proprietary and confidential information,
 including trade secrets, belonging to Gaussian, Inc.
  
 This software is provided under written license and may be
 used, copied, transmitted, or stored only in accord with that
 written license.
  
 The following legend is applicable only to US Government
 contracts under FAR:
  
                    RESTRICTED RIGHTS LEGEND
  
 Use, reproduction and disclosure by the US Government is
 subject to restrictions as set forth in subparagraphs (a)
 and (c) of the Commercial Computer Software - Restricted
 Rights clause in FAR 52.227-19.
  
 Gaussian, Inc.
 340 Quinnipiac St., Bldg. 40, Wallingford CT 06492
  
  
 ---------------------------------------------------------------
 Warning -- This program may not be used in any manner that
 competes with the business of Gaussian, Inc. or will provide
 assistance to any competitor of Gaussian, Inc.  The licensee
 of this program is prohibited from giving any competitor of
 Gaussian, Inc. access to this program.  By using this program,
 the user acknowledges that Gaussian, Inc. is engaged in the
 business of creating and licensing software in the field of
 computational chemistry and represents and warrants to the
 licensee that it is not a competitor of Gaussian, Inc. and that
 it will not use this program in any manner prohibited above.
 ---------------------------------------------------------------
  

 Cite this work as:
 Gaussian 09, Revision D.01,
 M. J. Frisch, G. W. Trucks, H. B. Schlegel, G. E. Scuseria, 
 M. A. Robb, J. R. Cheeseman, G. Scalmani, V. Barone, B. Mennucci, 
 G. A. Petersson, H. Nakatsuji, M. Caricato, X. Li, H. P. Hratchian, 
 A. F. Izmaylov, J. Bloino, G. Zheng, J. L. Sonnenberg, M. Hada, 
 M. Ehara, K. Toyota, R. Fukuda, J. Hasegawa, M. Ishida, T. Nakajima, 
 Y. Honda, O. Kitao, H. Nakai, T. Vreven, J. A. Montgomery, Jr., 
 J. E. Peralta, F. Ogliaro, M. Bearpark, J. J. Heyd, E. Brothers, 
 K. N. Kudin, V. N. Staroverov, T. Keith, R. Kobayashi, J. Normand, 
 K. Raghavachari, A. Rendell, J. C. Burant, S. S. Iyengar, J. Tomasi, 
 M. Cossi, N. Rega, J. M. Millam, M. Klene, J. E. Knox, J. B. Cross, 
 V. Bakken, C. Adamo, J. Jaramillo, R. Gomperts, R. E. Stratmann, 
 O. Yazyev, A. J. Austin, R. Cammi, C. Pomelli, J. W. Ochterski, 
 R. L. Martin, K. Morokuma, V. G. Zakrzewski, G. A. Voth, 
 P. Salvador, J. J. Dannenberg, S. Dapprich, A. D. Daniels, 
 O. Farkas, J. B. Foresman, J. V. Ortiz, J. Cioslowski, 
 and D. J. Fox, Gaussian, Inc., Wallingford CT, 2013.
 
 ******************************************
 Gaussian 09:  ES64L-G09RevD.01 24-Apr-2013
                12-Mar-2020 
 ******************************************
 --------------
 #p M062X/6-31G
 --------------
 1/38=1/1;
 2/12=2,17=6,18=5,40=1/2;
 3/5=1,6=6,11=2,16=1,25=1,30=1,74=-55/1,2,3;
 4//1;
 5/5=2,38=5/2;
 6/7=2,8=2,9=2,10=2,28=1/1;
 99/5=1,9=1/99;
 Leave Link    1 at Thu Mar 12 19:09:18 2020, MaxMem=           0 cpu:         0.0
 (Enter /usr/local/gaussian09d01/g09/l101.exe)
 --------
 chk calc
 --------
 Symbolic Z-matrix:
 Charge =  1 Multiplicity = 1
 C                     3.82448  -1.1422    1.17225 
 H                     4.79911  -1.62961   1.17381 
 H                     3.05361  -1.91631   1.1608 
 H                    -2.54042  -2.84498  -1.0143 
 H                     3.75961  -0.53292   2.07825 
 H                     3.76532  -0.52154   0.27395 
 C                    -2.40154  -0.7055    0.49256 
 C                    -1.33366   0.19321   1.14127 
 C                     0.02197  -0.47034   0.95019 
 N                    -1.3033    1.52915   0.51595 
 O                     0.15593  -1.61146   0.51692 
 O                     1.02492   0.35339   1.29866 
 C                    -2.12189  -0.91834  -0.96711 
 H                    -3.3923   -0.2474    0.5965 
 H                    -2.41918  -1.6699    1.00444 
 H                    -1.5263    0.23947   2.22139 
 H                    -1.5039    0.96075  -1.1704 
 H                    -0.41056   1.99753   0.66615 
 H                     1.9244   -0.03993   1.23082 
 N                    -1.70046   0.06924  -1.69492 
 O                    -2.33685  -2.07165  -1.57518 
 H                    -2.0719    2.12856   0.80783 
 H                    -1.40278  -0.12876  -3.27942 
 
 NAtoms=     23 NQM=       23 NQMF=       0 NMMI=      0 NMMIF=      0
                NMic=       0 NMicF=      0.
                    Isotopes and Nuclear Properties:
 (Nuclear quadrupole moments (NQMom) in fm**2, nuclear magnetic moments (NMagM)
  in nuclear magnetons)

  Atom         1           2           3           4           5           6           7           8           9          10
 IAtWgt=          12           1           1           1           1           1          12          12          12          14
 AtmWgt=  12.0000000   1.0078250   1.0078250   1.0078250   1.0078250   1.0078250  12.0000000  12.0000000  12.0000000  14.0030740
 NucSpn=           0           1           1           1           1           1           0           0           0           2
 AtZEff=   0.0000000   0.0000000   0.0000000   0.0000000   0.0000000   0.0000000   0.0000000   0.0000000   0.0000000   0.0000000
 NQMom=    0.0000000   0.0000000   0.0000000   0.0000000   0.0000000   0.0000000   0.0000000   0.0000000   0.0000000   2.0440000
 NMagM=    0.0000000   2.7928460   2.7928460   2.7928460   2.7928460   2.7928460   0.0000000   0.0000000   0.0000000   0.4037610
 AtZNuc=   6.0000000   1.0000000   1.0000000   1.0000000   1.0000000   1.0000000   6.0000000   6.0000000   6.0000000   7.0000000

  Atom        11          12          13          14          15          16          17          18          19          20
 IAtWgt=          16          16          12           1           1           1           1           1           1          14
 AtmWgt=  15.9949146  15.9949146  12.0000000   1.0078250   1.0078250   1.0078250   1.0078250   1.0078250   1.0078250  14.0030740
 NucSpn=           0           0           0           1           1           1           1           1           1           2
 AtZEff=   0.0000000   0.0000000   0.0000000   0.0000000   0.0000000   0.0000000   0.0000000   0.0000000   0.0000000   0.0000000
 NQMom=    0.0000000   0.0000000   0.0000000   0.0000000   0.0000000   0.0000000   0.0000000   0.0000000   0.0000000   2.0440000
 NMagM=    0.0000000   0.0000000   0.0000000   2.7928460   2.7928460   2.7928460   2.7928460   2.7928460   2.7928460   0.4037610
 AtZNuc=   8.0000000   8.0000000   6.0000000   1.0000000   1.0000000   1.0000000   1.0000000   1.0000000   1.0000000   7.0000000

  Atom        21          22          23
 IAtWgt=          16           1           1
 AtmWgt=  15.9949146   1.0078250   1.0078250
 NucSpn=           0           1           1
 AtZEff=   0.0000000   0.0000000   0.0000000
 NQMom=    0.0000000   0.0000000   0.0000000
 NMagM=    0.0000000   2.7928460   2.7928460
 AtZNuc=   8.0000000   1.0000000   1.0000000
 Leave Link  101 at Thu Mar 12 19:09:18 2020, MaxMem=    33554432 cpu:         0.0
 (Enter /usr/local/gaussian09d01/g09/l202.exe)
                          Input orientation:                          
 ---------------------------------------------------------------------
 Center     Atomic      Atomic             Coordinates (Angstroms)
 Number     Number       Type             X           Y           Z
 ---------------------------------------------------------------------
      1          6           0        3.824483   -1.142195    1.172254
      2          1           0        4.799113   -1.629614    1.173809
      3          1           0        3.053614   -1.916313    1.160805
      4          1           0       -2.540416   -2.844982   -1.014303
      5          1           0        3.759606   -0.532918    2.078246
      6          1           0        3.765324   -0.521541    0.273951
      7          6           0       -2.401542   -0.705499    0.492563
      8          6           0       -1.333656    0.193207    1.141271
      9          6           0        0.021967   -0.470338    0.950187
     10          7           0       -1.303305    1.529149    0.515945
     11          8           0        0.155929   -1.611463    0.516920
     12          8           0        1.024922    0.353393    1.298656
     13          6           0       -2.121889   -0.918337   -0.967113
     14          1           0       -3.392299   -0.247402    0.596497
     15          1           0       -2.419177   -1.669900    1.004436
     16          1           0       -1.526304    0.239474    2.221388
     17          1           0       -1.503902    0.960751   -1.170400
     18          1           0       -0.410560    1.997532    0.666151
     19          1           0        1.924402   -0.039926    1.230819
     20          7           0       -1.700457    0.069239   -1.694920
     21          8           0       -2.336855   -2.071648   -1.575178
     22          1           0       -2.071901    2.128557    0.807834
     23          1           0       -1.402780   -0.128761   -3.279423
 ---------------------------------------------------------------------
                    Distance matrix (angstroms):
                    1          2          3          4          5
     1  C    0.000000
     2  H    1.089717   0.000000
     3  H    1.092532   1.768935   0.000000
     4  H    6.942078   7.754589   6.073442   0.000000
     5  H    1.093732   1.761058   1.803858   7.389167   0.000000
     6  H    1.093462   1.762467   1.799563   6.842538   1.804340
     7  C    6.278222   7.291606   5.627730   2.620556   6.364270
     8  C    5.328288   6.398015   4.868120   3.915783   5.229388
     9  C    3.867794   4.920879   3.365425   4.007987   3.904662
    10  N    5.819023   6.902903   5.591940   4.796365   5.685594
    11  O    3.756056   4.689455   2.983974   3.337138   4.072774
    12  O    3.176523   4.265257   3.047319   5.318930   2.978557
    13  C    6.323476   7.279405   5.684173   1.972143   6.634362
    14  H    7.294799   8.327247   6.682328   3.172979   7.309368
    15  H    6.268167   7.220389   5.480567   2.338979   6.373630
    16  H    5.624999   6.678459   5.171838   4.583883   5.343962
    17  H    6.188869   7.206477   5.872220   3.947446   6.363118
    18  H    5.296189   6.368250   5.250083   5.550689   5.078138
    19  H    2.197438   3.285472   2.191084   5.730926   2.080661
    20  N    6.341389   7.304801   5.890567   3.108288   6.664208
    21  O    6.809871   7.659919   6.047056   0.976762   7.272004
    22  H    6.752626   7.840192   6.538842   5.317497   6.534820
    23  H    6.940371   7.781215   6.539909   3.715218   7.451053
                    6          7          8          9         10
     6  H    0.000000
     7  C    6.173481   0.000000
     8  C    5.221370   1.539115   0.000000
     9  C    3.804292   2.477522   1.521354   0.000000
    10  N    5.473106   2.490045   1.475362   2.437797   0.000000
    11  O    3.778186   2.713305   2.421882   1.227938   3.463063
    12  O    3.053740   3.675826   2.369245   1.343831   2.723175
    13  C    6.029674   1.501385   2.510403   2.910818   2.976530
    14  H    7.170129   1.096474   2.174610   3.439769   2.743450
    15  H    6.332486   1.091969   2.160613   2.720492   3.423114
    16  H    5.689726   2.155888   1.098138   2.125307   2.149773
    17  H    5.661103   2.519443   2.441706   2.978788   1.790831
    18  H    4.892602   3.361625   2.081690   2.521535   1.019283
    19  H    2.129916   4.438671   3.267616   1.970601   3.659389
    20  N    5.839541   2.424215   2.862497   3.202261   2.678990
    21  O    6.561912   2.479133   3.676285   3.808636   4.290310
    22  H    6.432825   2.870528   2.098038   3.340478   1.017462
    23  H    6.284110   3.944367   4.432942   4.476179   4.142871
                   11         12         13         14         15
    11  O    0.000000
    12  O    2.286245   0.000000
    13  C    2.805572   4.080861   0.000000
    14  H    3.802225   4.512852   2.123434   0.000000
    15  H    2.621499   4.005259   2.130782   1.771124   0.000000
    16  H    3.026729   2.715358   3.444094   2.521757   2.433907
    17  H    3.495479   3.586095   1.988519   2.854401   3.533832
    18  H    3.656231   2.272415   3.754796   3.733008   4.195121
    19  H    2.471210   0.984055   4.687748   5.358426   4.644862
    20  N    3.341132   4.058317   1.297157   2.865865   3.290545
    21  O    3.286734   5.043936   1.321393   3.026220   2.612009
    22  H    4.362981   3.603113   3.526542   2.726407   3.819362
    23  H    4.363508   5.204327   2.547024   4.358328   4.664722
                   16         17         18         19         20
    16  H    0.000000
    17  H    3.467704   0.000000
    18  H    2.598926   2.375549   0.000000
    19  H    3.600926   4.303542   3.149942   0.000000
    20  N    3.923872   1.052876   3.310106   4.659557   0.000000
    21  O    4.517986   3.170662   5.029155   5.491796   2.236680
    22  H    2.421661   2.366391   1.672511   4.566362   3.262290
    23  H    5.514506   2.375971   4.590553   5.605382   1.624336
                   21         22         23
    21  O    0.000000
    22  H    4.836390   0.000000
    23  H    2.748046   4.716872   0.000000
 Stoichiometry    C5H13N2O3(1+)
 Framework group  C1[X(C5H13N2O3)]
 Deg. of freedom    63
 Full point group                 C1      NOp   1
 Largest Abelian subgroup         C1      NOp   1
 Largest concise Abelian subgroup C1      NOp   1
                         Standard orientation:                         
 ---------------------------------------------------------------------
 Center     Atomic      Atomic             Coordinates (Angstroms)
 Number     Number       Type             X           Y           Z
 ---------------------------------------------------------------------
      1          6           0       -4.365733   -0.960509    0.314287
      2          1           0       -5.267453   -1.568368    0.384237
      3          1           0       -3.652170   -1.478021   -0.331186
      4          1           0        2.345232   -2.214958   -0.943390
      5          1           0       -4.652506    0.006480   -0.108731
      6          1           0       -3.963645   -0.845880    1.324655
      7          6           0        1.643945    0.309687   -0.984341
      8          6           0        0.411456    1.179800   -0.679794
      9          6           0       -0.768369    0.254453   -0.422376
     10          7           0        0.628111    2.019903    0.513512
     11          8           0       -0.728857   -0.956113   -0.624368
     12          8           0       -1.825656    0.929795    0.059227
     13          6           0        1.946690   -0.623999    0.151764
     14          1           0        2.519879    0.945927   -1.158106
     15          1           0        1.460340   -0.268762   -1.892130
     16          1           0        0.173904    1.772616   -1.573128
     17          1           0        1.460250    0.767598    1.486320
     18          1           0       -0.252269    2.317828    0.931974
     19          1           0       -2.631024    0.384166    0.207673
     20          7           0        1.840715   -0.207890    1.375789
     21          8           0        2.375483   -1.860018   -0.033903
     22          1           0        1.227110    2.823339    0.337677
     23          1           0        2.174888   -1.191964    2.624145
 ---------------------------------------------------------------------
 Rotational constants (GHZ):      1.7838492      0.7146120      0.6052693
 Leave Link  202 at Thu Mar 12 19:09:18 2020, MaxMem=    33554432 cpu:         0.0
 (Enter /usr/local/gaussian09d01/g09/l301.exe)
 Standard basis: 6-31G (6D, 7F)
 Ernie: Thresh=  0.10000D-02 Tol=  0.10000D-05 Strict=F.
 There are   116 symmetry adapted cartesian basis functions of A   symmetry.
 There are   116 symmetry adapted basis functions of A   symmetry.
   116 basis functions,   272 primitive gaussians,   116 cartesian basis functions
    40 alpha electrons       40 beta electrons
       nuclear repulsion energy       583.8391409382 Hartrees.
 IExCor= 4336 DFT=T Ex+Corr=M062X ExCW=0 ScaHFX=  0.540000
 ScaDFX=  1.000000  1.000000  1.000000  1.000000 ScalE2=  1.000000  1.000000
 IRadAn=      0 IRanWt=     -1 IRanGd=            0 ICorTp=0 IEmpDi=  4
 NAtoms=   23 NActive=   23 NUniq=   23 SFac= 1.00D+00 NAtFMM=   60 NAOKFM=F Big=F
 Integral buffers will be    131072 words long.
 Raffenetti 2 integral format.
 Two-electron integral symmetry is turned on.
 Leave Link  301 at Thu Mar 12 19:09:18 2020, MaxMem=    33554432 cpu:         0.0
 (Enter /usr/local/gaussian09d01/g09/l302.exe)
 NPDir=0 NMtPBC=     1 NCelOv=     1 NCel=       1 NClECP=     1 NCelD=      1
         NCelK=      1 NCelE2=     1 NClLst=     1 CellRange=     0.0.
 One-electron integrals computed using PRISM.
 NBasis=   116 RedAO= T EigKep=  3.60D-03  NBF=   116
 NBsUse=   116 1.00D-06 EigRej= -1.00D+00 NBFU=   116
 Precomputing XC quadrature grid using
 IXCGrd= 4 IRadAn=           0 IRanWt=          -1 IRanGd=           0 AccXCQ= 0.00D+00.
 Generated NRdTot=       0 NPtTot=           0 NUsed=           0 NTot=          32
 NSgBfM=   115   115   115   115   115 MxSgAt=    23 MxSgA2=    23.
 Leave Link  302 at Thu Mar 12 19:09:18 2020, MaxMem=    33554432 cpu:         0.3
 (Enter /usr/local/gaussian09d01/g09/l303.exe)
 DipDrv:  MaxL=1.
 Leave Link  303 at Thu Mar 12 19:09:18 2020, MaxMem=    33554432 cpu:         0.0
 (Enter /usr/local/gaussian09d01/g09/l401.exe)
 ExpMin= 1.61D-01 ExpMax= 5.48D+03 ExpMxC= 8.25D+02 IAcc=1 IRadAn=         1 AccDes= 0.00D+00
 Harris functional with IExCor= 1009 and IRadAn=       1 diagonalized for initial guess.
 HarFok:  IExCor= 1009 AccDes= 0.00D+00 IRadAn=         1 IDoV= 1 UseB2=F ITyADJ=14
 ICtDFT=  3500011 ScaDFX=  1.000000  1.000000  1.000000  1.000000
 FoFCou: FMM=F IPFlag=           0 FMFlag=      100000 FMFlg1=           0
         NFxFlg=           0 DoJE=T BraDBF=F KetDBF=T FulRan=T
         wScrn=  0.000000 ICntrl=     500 IOpCl=  0 I1Cent=   200000004 NGrid=           0
         NMat0=    1 NMatS0=      1 NMatT0=    0 NMatD0=    1 NMtDS0=    0 NMtDT0=    0
 Petite list used in FoFCou.
 Harris En= -532.647771330872    
 JPrj=0 DoOrth=F DoCkMO=F.
 Leave Link  401 at Thu Mar 12 19:09:19 2020, MaxMem=    33554432 cpu:         0.8
 (Enter /usr/local/gaussian09d01/g09/l502.exe)
 Closed shell SCF:
 Using DIIS extrapolation, IDIIS=  1040.
 Integral symmetry usage will be decided dynamically.
 Keep R1 ints in memory in canonical form, NReq=24030401.
 IVT=       60528 IEndB=       60528 NGot=    33554432 MDV=    10465614
 LenX=    10465614 LenY=    10451717
 Requested convergence on RMS density matrix=1.00D-08 within 128 cycles.
 Requested convergence on MAX density matrix=1.00D-06.
 Requested convergence on             energy=1.00D-06.
 No special actions if energy rises.
 FoFCou: FMM=F IPFlag=           0 FMFlag=           0 FMFlg1=           0
         NFxFlg=           0 DoJE=F BraDBF=F KetDBF=F FulRan=T
         wScrn=  0.000000 ICntrl=     600 IOpCl=  0 I1Cent=           0 NGrid=           0
         NMat0=    1 NMatS0=   6786 NMatT0=    0 NMatD0=    1 NMtDS0=    0 NMtDT0=    0
 Symmetry not used in FoFCou.
 Integral accuracy reduced to 1.0D-05 until final iterations.

 Cycle   1  Pass 0  IDiag  1:
 E= -532.540086419867    
 DIIS: error= 5.84D-02 at cycle   1 NSaved=   1.
 NSaved= 1 IEnMin= 1 EnMin= -532.540086419867     IErMin= 1 ErrMin= 5.84D-02
 ErrMax= 5.84D-02  0.00D+00 EMaxC= 1.00D-01 BMatC= 3.14D-01 BMatP= 3.14D-01
 IDIUse=3 WtCom= 4.16D-01 WtEn= 5.84D-01
 Coeff-Com:  0.100D+01
 Coeff-En:   0.100D+01
 Coeff:      0.100D+01
 Gap=     0.183 Goal=   None    Shift=    0.000
 GapD=    0.183 DampG=1.000 DampE=0.500 DampFc=0.5000 IDamp=-1.
 Damping current iteration by 5.00D-01
 RMSDP=8.47D-03 MaxDP=1.65D-01              OVMax= 1.83D-01

 Cycle   2  Pass 0  IDiag  1:
 E= -532.667388471219     Delta-E=       -0.127302051352 Rises=F Damp=T
 DIIS: error= 1.07D-02 at cycle   2 NSaved=   2.
 NSaved= 2 IEnMin= 2 EnMin= -532.667388471219     IErMin= 2 ErrMin= 1.07D-02
 ErrMax= 1.07D-02  0.00D+00 EMaxC= 1.00D-01 BMatC= 1.93D-02 BMatP= 3.14D-01
 IDIUse=3 WtCom= 8.93D-01 WtEn= 1.07D-01
 Coeff-Com:  0.414D-01 0.959D+00
 Coeff-En:   0.493D-01 0.951D+00
 Coeff:      0.423D-01 0.958D+00
 Gap=     0.292 Goal=   None    Shift=    0.000
 RMSDP=2.17D-03 MaxDP=3.09D-02 DE=-1.27D-01 OVMax= 1.10D-01

 Cycle   3  Pass 0  IDiag  1:
 E= -532.802066542003     Delta-E=       -0.134678070784 Rises=F Damp=F
 DIIS: error= 1.23D-02 at cycle   3 NSaved=   3.
 NSaved= 3 IEnMin= 3 EnMin= -532.802066542003     IErMin= 2 ErrMin= 1.07D-02
 ErrMax= 1.23D-02  0.00D+00 EMaxC= 1.00D-01 BMatC= 1.47D-02 BMatP= 1.93D-02
 IDIUse=3 WtCom= 8.77D-01 WtEn= 1.23D-01
 Coeff-Com: -0.184D-01 0.465D+00 0.554D+00
 Coeff-En:   0.000D+00 0.000D+00 0.100D+01
 Coeff:     -0.161D-01 0.407D+00 0.609D+00
 Gap=     0.281 Goal=   None    Shift=    0.000
 RMSDP=1.37D-03 MaxDP=3.51D-02 DE=-1.35D-01 OVMax= 5.02D-02

 Cycle   4  Pass 0  IDiag  1:
 E= -532.811517754705     Delta-E=       -0.009451212703 Rises=F Damp=F
 DIIS: error= 8.06D-03 at cycle   4 NSaved=   4.
 NSaved= 4 IEnMin= 4 EnMin= -532.811517754705     IErMin= 4 ErrMin= 8.06D-03
 ErrMax= 8.06D-03  0.00D+00 EMaxC= 1.00D-01 BMatC= 3.77D-03 BMatP= 1.47D-02
 IDIUse=3 WtCom= 9.19D-01 WtEn= 8.06D-02
 Coeff-Com: -0.560D-02 0.301D-01 0.341D+00 0.635D+00
 Coeff-En:   0.000D+00 0.000D+00 0.201D+00 0.799D+00
 Coeff:     -0.515D-02 0.277D-01 0.330D+00 0.648D+00
 Gap=     0.280 Goal=   None    Shift=    0.000
 RMSDP=5.32D-04 MaxDP=1.15D-02 DE=-9.45D-03 OVMax= 1.56D-02

 Cycle   5  Pass 0  IDiag  1:
 E= -532.814236470952     Delta-E=       -0.002718716247 Rises=F Damp=F
 DIIS: error= 1.08D-03 at cycle   5 NSaved=   5.
 NSaved= 5 IEnMin= 5 EnMin= -532.814236470952     IErMin= 5 ErrMin= 1.08D-03
 ErrMax= 1.08D-03  0.00D+00 EMaxC= 1.00D-01 BMatC= 1.66D-04 BMatP= 3.77D-03
 IDIUse=3 WtCom= 9.89D-01 WtEn= 1.08D-02
 Coeff-Com: -0.946D-03-0.829D-02 0.147D+00 0.337D+00 0.525D+00
 Coeff-En:   0.000D+00 0.000D+00 0.000D+00 0.000D+00 0.100D+01
 Coeff:     -0.936D-03-0.820D-02 0.146D+00 0.334D+00 0.530D+00
 Gap=     0.277 Goal=   None    Shift=    0.000
 RMSDP=1.07D-04 MaxDP=2.04D-03 DE=-2.72D-03 OVMax= 3.57D-03

 Cycle   6  Pass 0  IDiag  1:
 E= -532.814379223811     Delta-E=       -0.000142752859 Rises=F Damp=F
 DIIS: error= 3.22D-04 at cycle   6 NSaved=   6.
 NSaved= 6 IEnMin= 6 EnMin= -532.814379223811     IErMin= 6 ErrMin= 3.22D-04
 ErrMax= 3.22D-04  0.00D+00 EMaxC= 1.00D-01 BMatC= 6.25D-06 BMatP= 1.66D-04
 IDIUse=3 WtCom= 9.97D-01 WtEn= 3.22D-03
 Coeff-Com:  0.370D-03-0.451D-02 0.300D-01 0.630D-01 0.185D+00 0.726D+00
 Coeff-En:   0.000D+00 0.000D+00 0.000D+00 0.000D+00 0.000D+00 0.100D+01
 Coeff:      0.369D-03-0.449D-02 0.299D-01 0.628D-01 0.184D+00 0.727D+00
 Gap=     0.277 Goal=   None    Shift=    0.000
 RMSDP=2.98D-05 MaxDP=5.62D-04 DE=-1.43D-04 OVMax= 6.88D-04

 Cycle   7  Pass 0  IDiag  1:
 E= -532.814384082273     Delta-E=       -0.000004858462 Rises=F Damp=F
 DIIS: error= 1.10D-04 at cycle   7 NSaved=   7.
 NSaved= 7 IEnMin= 7 EnMin= -532.814384082273     IErMin= 7 ErrMin= 1.10D-04
 ErrMax= 1.10D-04  0.00D+00 EMaxC= 1.00D-01 BMatC= 1.57D-06 BMatP= 6.25D-06
 IDIUse=3 WtCom= 9.99D-01 WtEn= 1.10D-03
 Coeff-Com:  0.458D-03-0.110D-02-0.109D-01-0.320D-01 0.710D-02 0.388D+00
 Coeff-Com:  0.649D+00
 Coeff-En:   0.000D+00 0.000D+00 0.000D+00 0.000D+00 0.000D+00 0.000D+00
 Coeff-En:   0.100D+01
 Coeff:      0.458D-03-0.110D-02-0.109D-01-0.320D-01 0.709D-02 0.387D+00
 Coeff:      0.649D+00
 Gap=     0.277 Goal=   None    Shift=    0.000
 RMSDP=1.47D-05 MaxDP=3.04D-04 DE=-4.86D-06 OVMax= 3.95D-04

 Cycle   8  Pass 0  IDiag  1:
 E= -532.814385585236     Delta-E=       -0.000001502963 Rises=F Damp=F
 DIIS: error= 3.99D-05 at cycle   8 NSaved=   8.
 NSaved= 8 IEnMin= 8 EnMin= -532.814385585236     IErMin= 8 ErrMin= 3.99D-05
 ErrMax= 3.99D-05  0.00D+00 EMaxC= 1.00D-01 BMatC= 1.67D-07 BMatP= 1.57D-06
 IDIUse=1 WtCom= 1.00D+00 WtEn= 0.00D+00
 Coeff-Com:  0.168D-03 0.490D-04-0.833D-02-0.227D-01-0.189D-01 0.647D-01
 Coeff-Com:  0.296D+00 0.689D+00
 Coeff:      0.168D-03 0.490D-04-0.833D-02-0.227D-01-0.189D-01 0.647D-01
 Coeff:      0.296D+00 0.689D+00
 Gap=     0.277 Goal=   None    Shift=    0.000
 RMSDP=5.85D-06 MaxDP=1.19D-04 DE=-1.50D-06 OVMax= 1.32D-04

 Initial convergence to 1.0D-05 achieved.  Increase integral accuracy.
 Cycle   9  Pass 1  IDiag  1:
 E= -532.814560959241     Delta-E=       -0.000175374005 Rises=F Damp=F
 DIIS: error= 1.34D-04 at cycle   1 NSaved=   1.
 NSaved= 1 IEnMin= 1 EnMin= -532.814560959241     IErMin= 1 ErrMin= 1.34D-04
 ErrMax= 1.34D-04  0.00D+00 EMaxC= 1.00D-01 BMatC= 1.84D-06 BMatP= 1.84D-06
 IDIUse=3 WtCom= 9.99D-01 WtEn= 1.34D-03
 Coeff-Com:  0.100D+01
 Coeff-En:   0.100D+01
 Coeff:      0.100D+01
 Gap=     0.277 Goal=   None    Shift=    0.000
 RMSDP=5.85D-06 MaxDP=1.19D-04 DE=-1.75D-04 OVMax= 1.89D-04

 Cycle  10  Pass 1  IDiag  1:
 E= -532.814562530925     Delta-E=       -0.000001571684 Rises=F Damp=F
 DIIS: error= 7.47D-05 at cycle   2 NSaved=   2.
 NSaved= 2 IEnMin= 2 EnMin= -532.814562530925     IErMin= 2 ErrMin= 7.47D-05
 ErrMax= 7.47D-05  0.00D+00 EMaxC= 1.00D-01 BMatC= 4.51D-07 BMatP= 1.84D-06
 IDIUse=1 WtCom= 1.00D+00 WtEn= 0.00D+00
 Coeff-Com:  0.265D+00 0.735D+00
 Coeff:      0.265D+00 0.735D+00
 Gap=     0.277 Goal=   None    Shift=    0.000
 RMSDP=8.09D-06 MaxDP=1.61D-04 DE=-1.57D-06 OVMax= 1.85D-04

 Cycle  11  Pass 1  IDiag  1:
 E= -532.814562808218     Delta-E=       -0.000000277293 Rises=F Damp=F
 DIIS: error= 3.47D-05 at cycle   3 NSaved=   3.
 NSaved= 3 IEnMin= 3 EnMin= -532.814562808218     IErMin= 3 ErrMin= 3.47D-05
 ErrMax= 3.47D-05  0.00D+00 EMaxC= 1.00D-01 BMatC= 2.00D-07 BMatP= 4.51D-07
 IDIUse=1 WtCom= 1.00D+00 WtEn= 0.00D+00
 Coeff-Com: -0.216D-01 0.390D+00 0.631D+00
 Coeff:     -0.216D-01 0.390D+00 0.631D+00
 Gap=     0.277 Goal=   None    Shift=    0.000
 RMSDP=4.06D-06 MaxDP=9.79D-05 DE=-2.77D-07 OVMax= 1.23D-04

 Cycle  12  Pass 1  IDiag  1:
 E= -532.814562970546     Delta-E=       -0.000000162328 Rises=F Damp=F
 DIIS: error= 1.24D-05 at cycle   4 NSaved=   4.
 NSaved= 4 IEnMin= 4 EnMin= -532.814562970546     IErMin= 4 ErrMin= 1.24D-05
 ErrMax= 1.24D-05  0.00D+00 EMaxC= 1.00D-01 BMatC= 2.06D-08 BMatP= 2.00D-07
 IDIUse=1 WtCom= 1.00D+00 WtEn= 0.00D+00
 Coeff-Com: -0.311D-01 0.170D+00 0.355D+00 0.506D+00
 Coeff:     -0.311D-01 0.170D+00 0.355D+00 0.506D+00
 Gap=     0.277 Goal=   None    Shift=    0.000
 RMSDP=1.04D-06 MaxDP=2.82D-05 DE=-1.62D-07 OVMax= 4.02D-05

 Cycle  13  Pass 1  IDiag  1:
 E= -532.814562988870     Delta-E=       -0.000000018324 Rises=F Damp=F
 DIIS: error= 2.44D-06 at cycle   5 NSaved=   5.
 NSaved= 5 IEnMin= 5 EnMin= -532.814562988870     IErMin= 5 ErrMin= 2.44D-06
 ErrMax= 2.44D-06  0.00D+00 EMaxC= 1.00D-01 BMatC= 3.91D-10 BMatP= 2.06D-08
 IDIUse=1 WtCom= 1.00D+00 WtEn= 0.00D+00
 Coeff-Com: -0.808D-02 0.211D-01 0.596D-01 0.139D+00 0.788D+00
 Coeff:     -0.808D-02 0.211D-01 0.596D-01 0.139D+00 0.788D+00
 Gap=     0.277 Goal=   None    Shift=    0.000
 RMSDP=2.81D-07 MaxDP=5.44D-06 DE=-1.83D-08 OVMax= 6.20D-06

 Cycle  14  Pass 1  IDiag  1:
 E= -532.814562989164     Delta-E=       -0.000000000294 Rises=F Damp=F
 DIIS: error= 1.17D-06 at cycle   6 NSaved=   6.
 NSaved= 6 IEnMin= 6 EnMin= -532.814562989164     IErMin= 6 ErrMin= 1.17D-06
 ErrMax= 1.17D-06  0.00D+00 EMaxC= 1.00D-01 BMatC= 1.68D-10 BMatP= 3.91D-10
 IDIUse=1 WtCom= 1.00D+00 WtEn= 0.00D+00
 Coeff-Com:  0.846D-03-0.147D-01-0.233D-01-0.347D-02 0.430D+00 0.610D+00
 Coeff:      0.846D-03-0.147D-01-0.233D-01-0.347D-02 0.430D+00 0.610D+00
 Gap=     0.277 Goal=   None    Shift=    0.000
 RMSDP=1.07D-07 MaxDP=2.59D-06 DE=-2.94D-10 OVMax= 4.35D-06

 Cycle  15  Pass 1  IDiag  1:
 E= -532.814562989305     Delta-E=       -0.000000000141 Rises=F Damp=F
 DIIS: error= 4.22D-07 at cycle   7 NSaved=   7.
 NSaved= 7 IEnMin= 7 EnMin= -532.814562989305     IErMin= 7 ErrMin= 4.22D-07
 ErrMax= 4.22D-07  0.00D+00 EMaxC= 1.00D-01 BMatC= 8.13D-12 BMatP= 1.68D-10
 IDIUse=1 WtCom= 1.00D+00 WtEn= 0.00D+00
 Coeff-Com:  0.752D-03-0.672D-02-0.128D-01-0.865D-02 0.110D+00 0.242D+00
 Coeff-Com:  0.676D+00
 Coeff:      0.752D-03-0.672D-02-0.128D-01-0.865D-02 0.110D+00 0.242D+00
 Coeff:      0.676D+00
 Gap=     0.277 Goal=   None    Shift=    0.000
 RMSDP=4.66D-08 MaxDP=1.07D-06 DE=-1.41D-10 OVMax= 1.05D-06

 Cycle  16  Pass 1  IDiag  1:
 E= -532.814562989313     Delta-E=       -0.000000000008 Rises=F Damp=F
 DIIS: error= 1.22D-07 at cycle   8 NSaved=   8.
 NSaved= 8 IEnMin= 8 EnMin= -532.814562989313     IErMin= 8 ErrMin= 1.22D-07
 ErrMax= 1.22D-07  0.00D+00 EMaxC= 1.00D-01 BMatC= 2.51D-12 BMatP= 8.13D-12
 IDIUse=1 WtCom= 1.00D+00 WtEn= 0.00D+00
 Coeff-Com:  0.265D-03-0.676D-03-0.257D-02-0.420D-02-0.368D-01 0.879D-02
 Coeff-Com:  0.395D+00 0.640D+00
 Coeff:      0.265D-03-0.676D-03-0.257D-02-0.420D-02-0.368D-01 0.879D-02
 Coeff:      0.395D+00 0.640D+00
 Gap=     0.277 Goal=   None    Shift=    0.000
 RMSDP=1.56D-08 MaxDP=4.88D-07 DE=-7.73D-12 OVMax= 6.08D-07

 Cycle  17  Pass 1  IDiag  1:
 E= -532.814562989315     Delta-E=       -0.000000000002 Rises=F Damp=F
 DIIS: error= 3.67D-08 at cycle   9 NSaved=   9.
 NSaved= 9 IEnMin= 9 EnMin= -532.814562989315     IErMin= 9 ErrMin= 3.67D-08
 ErrMax= 3.67D-08  0.00D+00 EMaxC= 1.00D-01 BMatC= 7.59D-14 BMatP= 2.51D-12
 IDIUse=1 WtCom= 1.00D+00 WtEn= 0.00D+00
 Coeff-Com: -0.257D-04 0.401D-03 0.735D-03 0.296D-03-0.121D-01-0.142D-01
 Coeff-Com: -0.324D-01 0.915D-01 0.966D+00
 Coeff:     -0.257D-04 0.401D-03 0.735D-03 0.296D-03-0.121D-01-0.142D-01
 Coeff:     -0.324D-01 0.915D-01 0.966D+00
 Gap=     0.277 Goal=   None    Shift=    0.000
 RMSDP=5.82D-09 MaxDP=1.12D-07 DE=-1.82D-12 OVMax= 2.44D-07

 SCF Done:  E(RM062X) =  -532.814562989     A.U. after   17 cycles
            NFock= 17  Conv=0.58D-08     -V/T= 2.0061
 KE= 5.295597886762D+02 PE=-2.399867715028D+03 EE= 7.536542224241D+02
 Leave Link  502 at Thu Mar 12 19:10:14 2020, MaxMem=    33554432 cpu:        54.5
 (Enter /usr/local/gaussian09d01/g09/l601.exe)
 Copying SCF densities to generalized density rwf, IOpCl= 0 IROHF=0.

 **********************************************************************

            Population analysis using the SCF density.

 **********************************************************************

 Orbital symmetries:
       Occupied  (A) (A) (A) (A) (A) (A) (A) (A) (A) (A) (A) (A)
                 (A) (A) (A) (A) (A) (A) (A) (A) (A) (A) (A) (A)
                 (A) (A) (A) (A) (A) (A) (A) (A) (A) (A) (A) (A)
                 (A) (A) (A) (A)
       Virtual   (A) (A) (A) (A) (A) (A) (A) (A) (A) (A) (A) (A)
                 (A) (A) (A) (A) (A) (A) (A) (A) (A) (A) (A) (A)
                 (A) (A) (A) (A) (A) (A) (A) (A) (A) (A) (A) (A)
                 (A) (A) (A) (A) (A) (A) (A) (A) (A) (A) (A) (A)
                 (A) (A) (A) (A) (A) (A) (A) (A) (A) (A) (A) (A)
                 (A) (A) (A) (A) (A) (A) (A) (A) (A) (A) (A) (A)
                 (A) (A) (A) (A)
 The electronic state is 1-A.
 Alpha  occ. eigenvalues --  -19.87346 -19.83789 -19.80201 -14.99937 -14.92877
 Alpha  occ. eigenvalues --  -10.88239 -10.85865 -10.77615 -10.75102 -10.62970
 Alpha  occ. eigenvalues --   -1.41689  -1.39961  -1.30939  -1.22986  -1.17800
 Alpha  occ. eigenvalues --   -1.05411  -0.96039  -0.91887  -0.89873  -0.85574
 Alpha  occ. eigenvalues --   -0.79373  -0.78055  -0.75820  -0.73349  -0.72774
 Alpha  occ. eigenvalues --   -0.71829  -0.68986  -0.67093  -0.65115  -0.64164
 Alpha  occ. eigenvalues --   -0.62029  -0.60989  -0.60275  -0.56982  -0.56761
 Alpha  occ. eigenvalues --   -0.55821  -0.54844  -0.53608  -0.51258  -0.48904
 Alpha virt. eigenvalues --   -0.21230  -0.14863  -0.11909  -0.06051  -0.02312
 Alpha virt. eigenvalues --   -0.00341   0.01330   0.02114   0.04985   0.05429
 Alpha virt. eigenvalues --    0.07092   0.07317   0.08002   0.11078   0.11319
 Alpha virt. eigenvalues --    0.11466   0.12523   0.13395   0.16423   0.19091
 Alpha virt. eigenvalues --    0.21515   0.24906   0.28711   0.39406   0.42643
 Alpha virt. eigenvalues --    0.43974   0.46244   0.47048   0.48259   0.48423
 Alpha virt. eigenvalues --    0.50285   0.52245   0.52414   0.55968   0.58456
 Alpha virt. eigenvalues --    0.59031   0.59689   0.61671   0.64617   0.64901
 Alpha virt. eigenvalues --    0.68014   0.69042   0.71374   0.75298   0.75665
 Alpha virt. eigenvalues --    0.77405   0.79124   0.81282   0.83961   0.84394
 Alpha virt. eigenvalues --    0.86273   0.87594   0.88139   0.88426   0.91609
 Alpha virt. eigenvalues --    0.92475   0.92570   0.94689   0.95269   0.96871
 Alpha virt. eigenvalues --    1.02587   1.04206   1.07967   1.10137   1.12701
 Alpha virt. eigenvalues --    1.13063   1.19032   1.22961   1.29304   1.34372
 Alpha virt. eigenvalues --    1.41263   1.53073   1.62813   1.74913   1.76875
 Alpha virt. eigenvalues --    1.86841
          Condensed to atoms (all electrons):
               1          2          3          4          5          6
     1  C    5.189074   0.375414   0.371773   0.000000   0.370289   0.370808
     2  H    0.375414   0.470013  -0.017956   0.000000  -0.019867  -0.020342
     3  H    0.371773  -0.017956   0.520253   0.000000  -0.029475  -0.030090
     4  H    0.000000   0.000000   0.000000   0.296558   0.000000   0.000000
     5  H    0.370289  -0.019867  -0.029475   0.000000   0.538064  -0.032241
     6  H    0.370808  -0.020342  -0.030090   0.000000  -0.032241   0.545826
     7  C    0.000000   0.000000  -0.000001  -0.005570   0.000000   0.000000
     8  C   -0.000005   0.000001   0.000084   0.000148  -0.000011  -0.000007
     9  C    0.000258   0.000038   0.001490   0.000044  -0.000153  -0.000130
    10  N    0.000000   0.000000  -0.000001   0.000027   0.000000   0.000000
    11  O   -0.001319   0.000015   0.003313   0.000360   0.000043   0.000016
    12  O   -0.005216   0.000175  -0.001627   0.000000  -0.000760  -0.000631
    13  C    0.000000   0.000000   0.000000  -0.015480   0.000000   0.000000
    14  H    0.000000   0.000000   0.000000   0.000003   0.000000   0.000000
    15  H    0.000000   0.000000   0.000000   0.003556   0.000000   0.000000
    16  H    0.000001   0.000000  -0.000002   0.000004   0.000000   0.000000
    17  H    0.000000   0.000000   0.000000  -0.000046   0.000000   0.000000
    18  H   -0.000001   0.000000   0.000000   0.000000   0.000000   0.000000
    19  H    0.026829  -0.000934   0.002070   0.000000   0.005164   0.004688
    20  N    0.000000   0.000000   0.000000   0.005637   0.000000   0.000000
    21  O    0.000000   0.000000   0.000000   0.255917   0.000000   0.000000
    22  H    0.000000   0.000000   0.000000  -0.000001   0.000000   0.000000
    23  H    0.000000   0.000000   0.000000   0.000070   0.000000   0.000000
               7          8          9         10         11         12
     1  C    0.000000  -0.000005   0.000258   0.000000  -0.001319  -0.005216
     2  H    0.000000   0.000001   0.000038   0.000000   0.000015   0.000175
     3  H   -0.000001   0.000084   0.001490  -0.000001   0.003313  -0.001627
     4  H   -0.005570   0.000148   0.000044   0.000027   0.000360   0.000000
     5  H    0.000000  -0.000011  -0.000153   0.000000   0.000043  -0.000760
     6  H    0.000000  -0.000007  -0.000130   0.000000   0.000016  -0.000631
     7  C    5.428496   0.219968  -0.047866  -0.076553   0.007943   0.005347
     8  C    0.219968   5.570291   0.151814   0.192391  -0.124196  -0.148486
     9  C   -0.047866   0.151814   4.753101  -0.049244   0.496551   0.194056
    10  N   -0.076553   0.192391  -0.049244   7.094418   0.002191   0.001833
    11  O    0.007943  -0.124196   0.496551   0.002191   8.122600  -0.108497
    12  O    0.005347  -0.148486   0.194056   0.001833  -0.108497   8.420108
    13  C    0.263438  -0.017156  -0.007848  -0.001810   0.010040  -0.000530
    14  H    0.376780  -0.027798   0.005623  -0.001439   0.000412  -0.000026
    15  H    0.366950  -0.027828  -0.002084   0.003857   0.004752   0.000132
    16  H   -0.043693   0.385216  -0.026931  -0.036007   0.001059   0.000891
    17  H   -0.007764  -0.010844  -0.000743   0.089285   0.000203  -0.000057
    18  H    0.004875  -0.034188  -0.007494   0.320378   0.000226   0.013295
    19  H   -0.000158   0.005457  -0.018702  -0.000119  -0.000599   0.237079
    20  N   -0.101012   0.002569   0.000242  -0.071939  -0.003450   0.000048
    21  O   -0.062314   0.002573  -0.000507  -0.000143  -0.001460  -0.000001
    22  H   -0.000872  -0.028992   0.004132   0.321700  -0.000080  -0.000005
    23  H    0.001640  -0.000051  -0.000035   0.000786   0.000006   0.000000
              13         14         15         16         17         18
     1  C    0.000000   0.000000   0.000000   0.000001   0.000000  -0.000001
     2  H    0.000000   0.000000   0.000000   0.000000   0.000000   0.000000
     3  H    0.000000   0.000000   0.000000  -0.000002   0.000000   0.000000
     4  H   -0.015480   0.000003   0.003556   0.000004  -0.000046   0.000000
     5  H    0.000000   0.000000   0.000000   0.000000   0.000000   0.000000
     6  H    0.000000   0.000000   0.000000   0.000000   0.000000   0.000000
     7  C    0.263438   0.376780   0.366950  -0.043693  -0.007764   0.004875
     8  C   -0.017156  -0.027798  -0.027828   0.385216  -0.010844  -0.034188
     9  C   -0.007848   0.005623  -0.002084  -0.026931  -0.000743  -0.007494
    10  N   -0.001810  -0.001439   0.003857  -0.036007   0.089285   0.320378
    11  O    0.010040   0.000412   0.004752   0.001059   0.000203   0.000226
    12  O   -0.000530  -0.000026   0.000132   0.000891  -0.000057   0.013295
    13  C    4.680423  -0.036008  -0.032188   0.004387  -0.029246   0.000143
    14  H   -0.036008   0.444698  -0.016575  -0.003049  -0.000370  -0.000056
    15  H   -0.032188  -0.016575   0.467881  -0.000678   0.000307  -0.000101
    16  H    0.004387  -0.003049  -0.000678   0.462411   0.000992   0.001002
    17  H   -0.029246  -0.000370   0.000307   0.000992   0.275005  -0.000398
    18  H    0.000143  -0.000056  -0.000101   0.001002  -0.000398   0.337645
    19  H   -0.000012   0.000002  -0.000003  -0.000247  -0.000020  -0.000265
    20  N    0.299542  -0.001720   0.004407  -0.000266   0.252250   0.000297
    21  O    0.310017   0.001052  -0.002727  -0.000067   0.001296   0.000002
    22  H   -0.000309   0.001621  -0.000073  -0.003726  -0.001495  -0.020884
    23  H   -0.007502  -0.000044  -0.000035   0.000003   0.000878  -0.000006
              19         20         21         22         23
     1  C    0.026829   0.000000   0.000000   0.000000   0.000000
     2  H   -0.000934   0.000000   0.000000   0.000000   0.000000
     3  H    0.002070   0.000000   0.000000   0.000000   0.000000
     4  H    0.000000   0.005637   0.255917  -0.000001   0.000070
     5  H    0.005164   0.000000   0.000000   0.000000   0.000000
     6  H    0.004688   0.000000   0.000000   0.000000   0.000000
     7  C   -0.000158  -0.101012  -0.062314  -0.000872   0.001640
     8  C    0.005457   0.002569   0.002573  -0.028992  -0.000051
     9  C   -0.018702   0.000242  -0.000507   0.004132  -0.000035
    10  N   -0.000119  -0.071939  -0.000143   0.321700   0.000786
    11  O   -0.000599  -0.003450  -0.001460  -0.000080   0.000006
    12  O    0.237079   0.000048  -0.000001  -0.000005   0.000000
    13  C   -0.000012   0.299542   0.310017  -0.000309  -0.007502
    14  H    0.000002  -0.001720   0.001052   0.001621  -0.000044
    15  H   -0.000003   0.004407  -0.002727  -0.000073  -0.000035
    16  H   -0.000247  -0.000266  -0.000067  -0.003726   0.000003
    17  H   -0.000020   0.252250   0.001296  -0.001495   0.000878
    18  H   -0.000265   0.000297   0.000002  -0.020884  -0.000006
    19  H    0.275499   0.000011   0.000000   0.000017   0.000000
    20  N    0.000011   7.114682  -0.109867   0.000917   0.219928
    21  O    0.000000  -0.109867   8.157912   0.000002  -0.001760
    22  H    0.000017   0.000917   0.000002   0.369851  -0.000010
    23  H    0.000000   0.219928  -0.001760  -0.000010   0.381291
 Mulliken charges:
               1
     1  C   -0.697906
     2  H    0.213444
     3  H    0.180169
     4  H    0.458773
     5  H    0.168946
     6  H    0.162101
     7  C   -0.329635
     8  C   -0.110948
     9  C    0.554388
    10  N   -0.789610
    11  O   -0.410129
    12  O   -0.607130
    13  C    0.580099
    14  H    0.256895
    15  H    0.230451
    16  H    0.258700
    17  H    0.430769
    18  H    0.385530
    19  H    0.464243
    20  N   -0.612276
    21  O   -0.549925
    22  H    0.358208
    23  H    0.404843
 Sum of Mulliken charges =   1.00000
 Mulliken charges with hydrogens summed into heavy atoms:
               1
     1  C    0.026754
     7  C    0.157711
     8  C    0.147752
     9  C    0.554388
    10  N   -0.045872
    11  O   -0.410129
    12  O   -0.142887
    13  C    0.580099
    20  N    0.223335
    21  O   -0.091151
 Electronic spatial extent (au):  <R**2>=           2003.8823
 Charge=              1.0000 electrons
 Dipole moment (field-independent basis, Debye):
    X=              4.8610    Y=              1.5583    Z=              0.7341  Tot=              5.1572
 Quadrupole moment (field-independent basis, Debye-Ang):
   XX=            -33.5392   YY=            -47.4202   ZZ=            -44.0608
   XY=             -2.0318   XZ=             -1.0987   YZ=             -1.4832
 Traceless Quadrupole moment (field-independent basis, Debye-Ang):
   XX=              8.1342   YY=             -5.7468   ZZ=             -2.3874
   XY=             -2.0318   XZ=             -1.0987   YZ=             -1.4832
 Octapole moment (field-independent basis, Debye-Ang**2):
  XXX=            -21.2418  YYY=             15.9422  ZZZ=             25.2682  XYY=             25.2372
  XXY=            -20.1937  XXZ=              4.5165  XZZ=             33.4890  YZZ=            -15.1354
  YYZ=             -0.8470  XYZ=              0.4360
 Hexadecapole moment (field-independent basis, Debye-Ang**3):
 XXXX=          -1444.9317 YYYY=           -433.9099 ZZZZ=           -162.2322 XXXY=             20.1431
 XXXZ=            -19.4088 YYYX=            -15.9841 YYYZ=             33.4118 ZZZX=             60.2585
 ZZZY=            -32.7794 XXYY=           -327.8946 XXZZ=           -268.5756 YYZZ=            -96.3533
 XXYZ=             -3.9672 YYXZ=            -14.7939 ZZXY=            -52.4846
 N-N= 5.838391409382D+02 E-N=-2.399867712169D+03  KE= 5.295597886762D+02
 No NMR shielding tensors so no spin-rotation constants.
 Leave Link  601 at Thu Mar 12 19:10:14 2020, MaxMem=    33554432 cpu:         0.1
 (Enter /usr/local/gaussian09d01/g09/l9999.exe)
 1\1\GINC-KARURA\SP\RM062X\6-31G\C5H13N2O3(1+)\RTAKE\12-Mar-2020\0\\#p 
 M062X/6-31G\\chk calc\\1,1\C,0,3.824482709,-1.14219544,1.17225369\H,0,
 4.799113079,-1.62961423,1.173808707\H,0,3.053614027,-1.916312598,1.160
 804944\H,0,-2.540416453,-2.844981592,-1.014302773\H,0,3.75960642,-0.53
 291794,2.07824618\H,0,3.765323683,-0.52154146,0.273951194\C,0,-2.40154
 2122,-0.705499021,0.492562549\C,0,-1.33365594,0.193207044,1.141270536\
 C,0,0.021967089,-0.47033751,0.950186539\N,0,-1.303304814,1.529148773,0
 .515945207\O,0,0.155929117,-1.611462803,0.51692019\O,0,1.024922388,0.3
 53392554,1.298656\C,0,-2.121889445,-0.918337302,-0.967112723\H,0,-3.39
 229932,-0.247402335,0.596496855\H,0,-2.419176945,-1.669900059,1.004436
 439\H,0,-1.526304416,0.239474424,2.221387894\H,0,-1.503902114,0.960750
 702,-1.170400229\H,0,-0.410560182,1.997532273,0.666150752\H,0,1.924402
 159,-0.039925506,1.230818645\N,0,-1.700457396,0.069239192,-1.694919761
 \O,0,-2.336854815,-2.071648312,-1.575178364\H,0,-2.071900591,2.1285565
 43,0.807834339\H,0,-1.402779538,-0.128760734,-3.279423268\\Version=ES6
 4L-G09RevD.01\State=1-A\HF=-532.814563\RMSD=5.819e-09\Dipole=-1.789852
 9,0.6800589,-0.6713587\Quadrupole=4.8894883,-4.593027,-0.2964613,1.779
 5389,2.7260956,0.1043796\PG=C01 [X(C5H13N2O3)]\\@


 WHEN HAVING A MEETING OF THE MINDS,
 MAKE SURE YOU HAVE THE EQUIPMENT FOR IT.
 Job cpu time:       0 days  0 hours  0 minutes 55.9 seconds.
 File lengths (MBytes):  RWF=      7 Int=      0 D2E=      0 Chk=      2 Scr=      1
 Normal termination of Gaussian 09 at Thu Mar 12 19:10:14 2020.
