 Entering Gaussian System, Link 0=g09
 Input=./n20_h23_05.gjf
 Output=./n20_h23_05.log
 Initial command:
 /usr/local/gaussian09d01/g09/l1.exe "/scr/Gau-19506.inp" -scrdir="/scr/"
 Entering Link 1 = /usr/local/gaussian09d01/g09/l1.exe PID=     19507.
  
 Copyright (c) 1988,1990,1992,1993,1995,1998,2003,2009,2013,
            Gaussian, Inc.  All Rights Reserved.
  
 This is part of the Gaussian(R) 09 program.  It is based on
 the Gaussian(R) 03 system (copyright 2003, Gaussian, Inc.),
 the Gaussian(R) 98 system (copyright 1998, Gaussian, Inc.),
 the Gaussian(R) 94 system (copyright 1995, Gaussian, Inc.),
 the Gaussian 92(TM) system (copyright 1992, Gaussian, Inc.),
 the Gaussian 90(TM) system (copyright 1990, Gaussian, Inc.),
 the Gaussian 88(TM) system (copyright 1988, Gaussian, Inc.),
 the Gaussian 86(TM) system (copyright 1986, Carnegie Mellon
 University), and the Gaussian 82(TM) system (copyright 1983,
 Carnegie Mellon University). Gaussian is a federally registered
 trademark of Gaussian, Inc.
  
 This software contains proprietary and confidential information,
 including trade secrets, belonging to Gaussian, Inc.
  
 This software is provided under written license and may be
 used, copied, transmitted, or stored only in accord with that
 written license.
  
 The following legend is applicable only to US Government
 contracts under FAR:
  
                    RESTRICTED RIGHTS LEGEND
  
 Use, reproduction and disclosure by the US Government is
 subject to restrictions as set forth in subparagraphs (a)
 and (c) of the Commercial Computer Software - Restricted
 Rights clause in FAR 52.227-19.
  
 Gaussian, Inc.
 340 Quinnipiac St., Bldg. 40, Wallingford CT 06492
  
  
 ---------------------------------------------------------------
 Warning -- This program may not be used in any manner that
 competes with the business of Gaussian, Inc. or will provide
 assistance to any competitor of Gaussian, Inc.  The licensee
 of this program is prohibited from giving any competitor of
 Gaussian, Inc. access to this program.  By using this program,
 the user acknowledges that Gaussian, Inc. is engaged in the
 business of creating and licensing software in the field of
 computational chemistry and represents and warrants to the
 licensee that it is not a competitor of Gaussian, Inc. and that
 it will not use this program in any manner prohibited above.
 ---------------------------------------------------------------
  

 Cite this work as:
 Gaussian 09, Revision D.01,
 M. J. Frisch, G. W. Trucks, H. B. Schlegel, G. E. Scuseria, 
 M. A. Robb, J. R. Cheeseman, G. Scalmani, V. Barone, B. Mennucci, 
 G. A. Petersson, H. Nakatsuji, M. Caricato, X. Li, H. P. Hratchian, 
 A. F. Izmaylov, J. Bloino, G. Zheng, J. L. Sonnenberg, M. Hada, 
 M. Ehara, K. Toyota, R. Fukuda, J. Hasegawa, M. Ishida, T. Nakajima, 
 Y. Honda, O. Kitao, H. Nakai, T. Vreven, J. A. Montgomery, Jr., 
 J. E. Peralta, F. Ogliaro, M. Bearpark, J. J. Heyd, E. Brothers, 
 K. N. Kudin, V. N. Staroverov, T. Keith, R. Kobayashi, J. Normand, 
 K. Raghavachari, A. Rendell, J. C. Burant, S. S. Iyengar, J. Tomasi, 
 M. Cossi, N. Rega, J. M. Millam, M. Klene, J. E. Knox, J. B. Cross, 
 V. Bakken, C. Adamo, J. Jaramillo, R. Gomperts, R. E. Stratmann, 
 O. Yazyev, A. J. Austin, R. Cammi, C. Pomelli, J. W. Ochterski, 
 R. L. Martin, K. Morokuma, V. G. Zakrzewski, G. A. Voth, 
 P. Salvador, J. J. Dannenberg, S. Dapprich, A. D. Daniels, 
 O. Farkas, J. B. Foresman, J. V. Ortiz, J. Cioslowski, 
 and D. J. Fox, Gaussian, Inc., Wallingford CT, 2013.
 
 ******************************************
 Gaussian 09:  ES64L-G09RevD.01 24-Apr-2013
                12-Mar-2020 
 ******************************************
 --------------
 #p M062X/6-31G
 --------------
 1/38=1/1;
 2/12=2,17=6,18=5,40=1/2;
 3/5=1,6=6,11=2,16=1,25=1,30=1,74=-55/1,2,3;
 4//1;
 5/5=2,38=5/2;
 6/7=2,8=2,9=2,10=2,28=1/1;
 99/5=1,9=1/99;
 Leave Link    1 at Thu Mar 12 18:58:19 2020, MaxMem=           0 cpu:         0.0
 (Enter /usr/local/gaussian09d01/g09/l101.exe)
 --------
 chk calc
 --------
 Symbolic Z-matrix:
 Charge =  1 Multiplicity = 1
 C                     3.82448  -1.1422    1.17225 
 H                     4.79911  -1.62961   1.17381 
 H                     3.05361  -1.91631   1.1608 
 H                    -2.54042  -2.84498  -1.0143 
 H                     3.75961  -0.53292   2.07825 
 H                     3.76532  -0.52154   0.27395 
 C                    -2.40154  -0.7055    0.49256 
 C                    -1.33366   0.19321   1.14127 
 C                     0.02197  -0.47034   0.95019 
 N                    -1.3033    1.52915   0.51595 
 O                     0.15593  -1.61146   0.51692 
 O                     1.02492   0.35339   1.29866 
 C                    -2.12189  -0.91834  -0.96711 
 H                    -3.3923   -0.2474    0.5965 
 H                    -2.41918  -1.6699    1.00444 
 H                    -1.5263    0.23947   2.22139 
 H                    -1.5039    0.96075  -1.1704 
 H                    -0.41056   1.99753   0.66615 
 H                     1.9244   -0.03993   1.23082 
 N                    -1.70046   0.06924  -1.69492 
 O                    -2.33685  -2.07165  -1.57518 
 H                    -2.0719    2.12856   0.80783 
 H                    -1.60743   0.00736  -2.19008 
 
 NAtoms=     23 NQM=       23 NQMF=       0 NMMI=      0 NMMIF=      0
                NMic=       0 NMicF=      0.
                    Isotopes and Nuclear Properties:
 (Nuclear quadrupole moments (NQMom) in fm**2, nuclear magnetic moments (NMagM)
  in nuclear magnetons)

  Atom         1           2           3           4           5           6           7           8           9          10
 IAtWgt=          12           1           1           1           1           1          12          12          12          14
 AtmWgt=  12.0000000   1.0078250   1.0078250   1.0078250   1.0078250   1.0078250  12.0000000  12.0000000  12.0000000  14.0030740
 NucSpn=           0           1           1           1           1           1           0           0           0           2
 AtZEff=   0.0000000   0.0000000   0.0000000   0.0000000   0.0000000   0.0000000   0.0000000   0.0000000   0.0000000   0.0000000
 NQMom=    0.0000000   0.0000000   0.0000000   0.0000000   0.0000000   0.0000000   0.0000000   0.0000000   0.0000000   2.0440000
 NMagM=    0.0000000   2.7928460   2.7928460   2.7928460   2.7928460   2.7928460   0.0000000   0.0000000   0.0000000   0.4037610
 AtZNuc=   6.0000000   1.0000000   1.0000000   1.0000000   1.0000000   1.0000000   6.0000000   6.0000000   6.0000000   7.0000000

  Atom        11          12          13          14          15          16          17          18          19          20
 IAtWgt=          16          16          12           1           1           1           1           1           1          14
 AtmWgt=  15.9949146  15.9949146  12.0000000   1.0078250   1.0078250   1.0078250   1.0078250   1.0078250   1.0078250  14.0030740
 NucSpn=           0           0           0           1           1           1           1           1           1           2
 AtZEff=   0.0000000   0.0000000   0.0000000   0.0000000   0.0000000   0.0000000   0.0000000   0.0000000   0.0000000   0.0000000
 NQMom=    0.0000000   0.0000000   0.0000000   0.0000000   0.0000000   0.0000000   0.0000000   0.0000000   0.0000000   2.0440000
 NMagM=    0.0000000   0.0000000   0.0000000   2.7928460   2.7928460   2.7928460   2.7928460   2.7928460   2.7928460   0.4037610
 AtZNuc=   8.0000000   8.0000000   6.0000000   1.0000000   1.0000000   1.0000000   1.0000000   1.0000000   1.0000000   7.0000000

  Atom        21          22          23
 IAtWgt=          16           1           1
 AtmWgt=  15.9949146   1.0078250   1.0078250
 NucSpn=           0           1           1
 AtZEff=   0.0000000   0.0000000   0.0000000
 NQMom=    0.0000000   0.0000000   0.0000000
 NMagM=    0.0000000   2.7928460   2.7928460
 AtZNuc=   8.0000000   1.0000000   1.0000000
 Leave Link  101 at Thu Mar 12 18:58:20 2020, MaxMem=    33554432 cpu:         0.0
 (Enter /usr/local/gaussian09d01/g09/l202.exe)
                          Input orientation:                          
 ---------------------------------------------------------------------
 Center     Atomic      Atomic             Coordinates (Angstroms)
 Number     Number       Type             X           Y           Z
 ---------------------------------------------------------------------
      1          6           0        3.824483   -1.142195    1.172254
      2          1           0        4.799113   -1.629614    1.173809
      3          1           0        3.053614   -1.916313    1.160805
      4          1           0       -2.540416   -2.844982   -1.014303
      5          1           0        3.759606   -0.532918    2.078246
      6          1           0        3.765324   -0.521541    0.273951
      7          6           0       -2.401542   -0.705499    0.492563
      8          6           0       -1.333656    0.193207    1.141271
      9          6           0        0.021967   -0.470338    0.950187
     10          7           0       -1.303305    1.529149    0.515945
     11          8           0        0.155929   -1.611463    0.516920
     12          8           0        1.024922    0.353393    1.298656
     13          6           0       -2.121889   -0.918337   -0.967113
     14          1           0       -3.392299   -0.247402    0.596497
     15          1           0       -2.419177   -1.669900    1.004436
     16          1           0       -1.526304    0.239474    2.221388
     17          1           0       -1.503902    0.960751   -1.170400
     18          1           0       -0.410560    1.997532    0.666151
     19          1           0        1.924402   -0.039926    1.230819
     20          7           0       -1.700457    0.069239   -1.694920
     21          8           0       -2.336855   -2.071648   -1.575178
     22          1           0       -2.071901    2.128557    0.807834
     23          1           0       -1.607433    0.007364   -2.190077
 ---------------------------------------------------------------------
                    Distance matrix (angstroms):
                    1          2          3          4          5
     1  C    0.000000
     2  H    1.089717   0.000000
     3  H    1.092532   1.768935   0.000000
     4  H    6.942078   7.754589   6.073442   0.000000
     5  H    1.093732   1.761058   1.803858   7.389167   0.000000
     6  H    1.093462   1.762467   1.799563   6.842538   1.804340
     7  C    6.278222   7.291606   5.627730   2.620556   6.364270
     8  C    5.328288   6.398015   4.868120   3.915783   5.229388
     9  C    3.867794   4.920879   3.365425   4.007987   3.904662
    10  N    5.819023   6.902903   5.591940   4.796365   5.685594
    11  O    3.756056   4.689455   2.983974   3.337138   4.072774
    12  O    3.176523   4.265257   3.047319   5.318930   2.978557
    13  C    6.323476   7.279405   5.684173   1.972143   6.634362
    14  H    7.294799   8.327247   6.682328   3.172979   7.309368
    15  H    6.268167   7.220389   5.480567   2.338979   6.373630
    16  H    5.624999   6.678459   5.171838   4.583883   5.343962
    17  H    6.188869   7.206477   5.872220   3.947446   6.363118
    18  H    5.296189   6.368250   5.250083   5.550689   5.078138
    19  H    2.197438   3.285472   2.191084   5.730926   2.080661
    20  N    6.341389   7.304801   5.890567   3.108288   6.664208
    21  O    6.809871   7.659919   6.047056   0.976762   7.272004
    22  H    6.752626   7.840192   6.538842   5.317497   6.534820
    23  H    6.490953   7.418845   6.054280   3.223163   6.878634
                    6          7          8          9         10
     6  H    0.000000
     7  C    6.173481   0.000000
     8  C    5.221370   1.539115   0.000000
     9  C    3.804292   2.477522   1.521354   0.000000
    10  N    5.473106   2.490045   1.475362   2.437797   0.000000
    11  O    3.778186   2.713305   2.421882   1.227938   3.463063
    12  O    3.053740   3.675826   2.369245   1.343831   2.723175
    13  C    6.029674   1.501385   2.510403   2.910818   2.976530
    14  H    7.170129   1.096474   2.174610   3.439769   2.743450
    15  H    6.332486   1.091969   2.160613   2.720492   3.423114
    16  H    5.689726   2.155888   1.098138   2.125307   2.149773
    17  H    5.661103   2.519443   2.441706   2.978788   1.790831
    18  H    4.892602   3.361625   2.081690   2.521535   1.019283
    19  H    2.129916   4.438671   3.267616   1.970601   3.659389
    20  N    5.839541   2.424215   2.862497   3.202261   2.678990
    21  O    6.561912   2.479133   3.676285   3.808636   4.290310
    22  H    6.432825   2.870528   2.098038   3.340478   1.017462
    23  H    5.934450   2.887099   3.347741   3.569930   3.119436
                   11         12         13         14         15
    11  O    0.000000
    12  O    2.286245   0.000000
    13  C    2.805572   4.080861   0.000000
    14  H    3.802225   4.512852   2.123434   0.000000
    15  H    2.621499   4.005259   2.130782   1.771124   0.000000
    16  H    3.026729   2.715358   3.444094   2.521757   2.433907
    17  H    3.495479   3.586095   1.988519   2.854401   3.533832
    18  H    3.656231   2.272415   3.754796   3.733008   4.195121
    19  H    2.471210   0.984055   4.687748   5.358426   4.644862
    20  N    3.341132   4.058317   1.297157   2.865865   3.290545
    21  O    3.286734   5.043936   1.321393   3.026220   2.612009
    22  H    4.362981   3.603113   3.526542   2.726407   3.819362
    23  H    3.613569   4.384095   1.617786   3.318983   3.698251
                   16         17         18         19         20
    16  H    0.000000
    17  H    3.467704   0.000000
    18  H    2.598926   2.375549   0.000000
    19  H    3.600926   4.303542   3.149942   0.000000
    20  N    3.923872   1.052876   3.310106   4.659557   0.000000
    21  O    4.517986   3.170662   5.029155   5.491796   2.236680
    22  H    2.421661   2.366391   1.672511   4.566362   3.262290
    23  H    4.418312   1.399788   3.681211   4.917176   0.507605
                   21         22         23
    21  O    0.000000
    22  H    4.836390   0.000000
    23  H    2.287455   3.701710   0.000000
 Stoichiometry    C5H13N2O3(1+)
 Framework group  C1[X(C5H13N2O3)]
 Deg. of freedom    63
 Full point group                 C1      NOp   1
 Largest Abelian subgroup         C1      NOp   1
 Largest concise Abelian subgroup C1      NOp   1
                         Standard orientation:                         
 ---------------------------------------------------------------------
 Center     Atomic      Atomic             Coordinates (Angstroms)
 Number     Number       Type             X           Y           Z
 ---------------------------------------------------------------------
      1          6           0       -4.371077   -0.931728    0.323544
      2          1           0       -5.277070   -1.531617    0.405966
      3          1           0       -3.656268   -1.473522   -0.300262
      4          1           0        2.340531   -2.265638   -0.845836
      5          1           0       -4.648786    0.023259   -0.131569
      6          1           0       -3.975379   -0.787951    1.332707
      7          6           0        1.655440    0.260693   -0.970789
      8          6           0        0.426339    1.147378   -0.702505
      9          6           0       -0.761060    0.237721   -0.424788
     10          7           0        0.639889    2.023115    0.465474
     11          8           0       -0.727745   -0.978795   -0.588528
     12          8           0       -1.817434    0.934217    0.027816
     13          6           0        1.944323   -0.638769    0.196118
     14          1           0        2.536555    0.885853   -1.158045
     15          1           0        1.474578   -0.344780   -1.861342
     16          1           0        0.198797    1.713353   -1.615634
     17          1           0        1.457286    0.796870    1.482952
     18          1           0       -0.241516    2.339335    0.868050
     19          1           0       -2.627240    0.398401    0.187442
     20          7           0        1.832376   -0.183892    1.405733
     21          8           0        2.366627   -1.882576    0.052299
     22          1           0        1.245149    2.817002    0.268921
     23          1           0        1.932128   -0.479673    1.806015
 ---------------------------------------------------------------------
 Rotational constants (GHZ):      1.8147856      0.7196255      0.6067508
 Leave Link  202 at Thu Mar 12 18:58:20 2020, MaxMem=    33554432 cpu:         0.0
 (Enter /usr/local/gaussian09d01/g09/l301.exe)
 Standard basis: 6-31G (6D, 7F)
 Ernie: Thresh=  0.10000D-02 Tol=  0.10000D-05 Strict=F.
 There are   116 symmetry adapted cartesian basis functions of A   symmetry.
 There are   116 symmetry adapted basis functions of A   symmetry.
   116 basis functions,   272 primitive gaussians,   116 cartesian basis functions
    40 alpha electrons       40 beta electrons
       nuclear repulsion energy       591.6296370395 Hartrees.
 IExCor= 4336 DFT=T Ex+Corr=M062X ExCW=0 ScaHFX=  0.540000
 ScaDFX=  1.000000  1.000000  1.000000  1.000000 ScalE2=  1.000000  1.000000
 IRadAn=      0 IRanWt=     -1 IRanGd=            0 ICorTp=0 IEmpDi=  4
 NAtoms=   23 NActive=   23 NUniq=   23 SFac= 1.00D+00 NAtFMM=   60 NAOKFM=F Big=F
 Integral buffers will be    131072 words long.
 Raffenetti 2 integral format.
 Two-electron integral symmetry is turned on.
 Leave Link  301 at Thu Mar 12 18:58:20 2020, MaxMem=    33554432 cpu:         0.0
 (Enter /usr/local/gaussian09d01/g09/l302.exe)
 NPDir=0 NMtPBC=     1 NCelOv=     1 NCel=       1 NClECP=     1 NCelD=      1
         NCelK=      1 NCelE2=     1 NClLst=     1 CellRange=     0.0.
 One-electron integrals computed using PRISM.
 NBasis=   116 RedAO= T EigKep=  3.54D-03  NBF=   116
 NBsUse=   116 1.00D-06 EigRej= -1.00D+00 NBFU=   116
 Precomputing XC quadrature grid using
 IXCGrd= 4 IRadAn=           0 IRanWt=          -1 IRanGd=           0 AccXCQ= 0.00D+00.
 Generated NRdTot=       0 NPtTot=           0 NUsed=           0 NTot=          32
 NSgBfM=   115   115   115   115   115 MxSgAt=    23 MxSgA2=    23.
 Leave Link  302 at Thu Mar 12 18:58:21 2020, MaxMem=    33554432 cpu:         0.4
 (Enter /usr/local/gaussian09d01/g09/l303.exe)
 DipDrv:  MaxL=1.
 Leave Link  303 at Thu Mar 12 18:58:21 2020, MaxMem=    33554432 cpu:         0.0
 (Enter /usr/local/gaussian09d01/g09/l401.exe)
 ExpMin= 1.61D-01 ExpMax= 5.48D+03 ExpMxC= 8.25D+02 IAcc=1 IRadAn=         1 AccDes= 0.00D+00
 Harris functional with IExCor= 1009 and IRadAn=       1 diagonalized for initial guess.
 HarFok:  IExCor= 1009 AccDes= 0.00D+00 IRadAn=         1 IDoV= 1 UseB2=F ITyADJ=14
 ICtDFT=  3500011 ScaDFX=  1.000000  1.000000  1.000000  1.000000
 FoFCou: FMM=F IPFlag=           0 FMFlag=      100000 FMFlg1=           0
         NFxFlg=           0 DoJE=T BraDBF=F KetDBF=T FulRan=T
         wScrn=  0.000000 ICntrl=     500 IOpCl=  0 I1Cent=   200000004 NGrid=           0
         NMat0=    1 NMatS0=      1 NMatT0=    0 NMatD0=    1 NMtDS0=    0 NMtDT0=    0
 Petite list used in FoFCou.
 Harris En= -532.019886380635    
 JPrj=0 DoOrth=F DoCkMO=F.
 Leave Link  401 at Thu Mar 12 18:58:24 2020, MaxMem=    33554432 cpu:         1.0
 (Enter /usr/local/gaussian09d01/g09/l502.exe)
 Closed shell SCF:
 Using DIIS extrapolation, IDIIS=  1040.
 Integral symmetry usage will be decided dynamically.
 Keep R1 ints in memory in canonical form, NReq=24030401.
 IVT=       60528 IEndB=       60528 NGot=    33554432 MDV=    10465614
 LenX=    10465614 LenY=    10451717
 Requested convergence on RMS density matrix=1.00D-08 within 128 cycles.
 Requested convergence on MAX density matrix=1.00D-06.
 Requested convergence on             energy=1.00D-06.
 No special actions if energy rises.
 FoFCou: FMM=F IPFlag=           0 FMFlag=           0 FMFlg1=           0
         NFxFlg=           0 DoJE=F BraDBF=F KetDBF=F FulRan=T
         wScrn=  0.000000 ICntrl=     600 IOpCl=  0 I1Cent=           0 NGrid=           0
         NMat0=    1 NMatS0=   6786 NMatT0=    0 NMatD0=    1 NMtDS0=    0 NMtDT0=    0
 Symmetry not used in FoFCou.
 Integral accuracy reduced to 1.0D-05 until final iterations.

 Cycle   1  Pass 0  IDiag  1:
 E= -531.677230603555    
 DIIS: error= 5.67D-02 at cycle   1 NSaved=   1.
 NSaved= 1 IEnMin= 1 EnMin= -531.677230603555     IErMin= 1 ErrMin= 5.67D-02
 ErrMax= 5.67D-02  0.00D+00 EMaxC= 1.00D-01 BMatC= 4.75D-01 BMatP= 4.75D-01
 IDIUse=3 WtCom= 4.33D-01 WtEn= 5.67D-01
 Coeff-Com:  0.100D+01
 Coeff-En:   0.100D+01
 Coeff:      0.100D+01
 Gap=     0.237 Goal=   None    Shift=    0.000
 GapD=    0.237 DampG=1.000 DampE=0.500 DampFc=0.5000 IDamp=-1.
 Damping current iteration by 5.00D-01
 RMSDP=1.05D-02 MaxDP=3.11D-01              OVMax= 3.58D-01

 Cycle   2  Pass 0  IDiag  1:
 E= -531.864216417178     Delta-E=       -0.186985813623 Rises=F Damp=T
 DIIS: error= 1.04D-02 at cycle   2 NSaved=   2.
 NSaved= 2 IEnMin= 2 EnMin= -531.864216417178     IErMin= 2 ErrMin= 1.04D-02
 ErrMax= 1.04D-02  0.00D+00 EMaxC= 1.00D-01 BMatC= 2.34D-02 BMatP= 4.75D-01
 IDIUse=3 WtCom= 8.96D-01 WtEn= 1.04D-01
 Coeff-Com:  0.446D-01 0.955D+00
 Coeff-En:   0.863D-01 0.914D+00
 Coeff:      0.489D-01 0.951D+00
 Gap=     0.333 Goal=   None    Shift=    0.000
 RMSDP=2.57D-03 MaxDP=4.01D-02 DE=-1.87D-01 OVMax= 2.01D-01

 Cycle   3  Pass 0  IDiag  1:
 E= -532.079538644012     Delta-E=       -0.215322226834 Rises=F Damp=F
 DIIS: error= 9.40D-03 at cycle   3 NSaved=   3.
 NSaved= 3 IEnMin= 3 EnMin= -532.079538644012     IErMin= 3 ErrMin= 9.40D-03
 ErrMax= 9.40D-03  0.00D+00 EMaxC= 1.00D-01 BMatC= 1.57D-02 BMatP= 2.34D-02
 IDIUse=3 WtCom= 9.06D-01 WtEn= 9.40D-02
 Coeff-Com: -0.154D-01 0.443D+00 0.573D+00
 Coeff-En:   0.000D+00 0.000D+00 0.100D+01
 Coeff:     -0.140D-01 0.401D+00 0.613D+00
 Gap=     0.321 Goal=   None    Shift=    0.000
 RMSDP=1.33D-03 MaxDP=3.07D-02 DE=-2.15D-01 OVMax= 4.80D-02

 Cycle   4  Pass 0  IDiag  1:
 E= -532.090973059331     Delta-E=       -0.011434415319 Rises=F Damp=F
 DIIS: error= 6.10D-03 at cycle   4 NSaved=   4.
 NSaved= 4 IEnMin= 4 EnMin= -532.090973059331     IErMin= 4 ErrMin= 6.10D-03
 ErrMax= 6.10D-03  0.00D+00 EMaxC= 1.00D-01 BMatC= 2.94D-03 BMatP= 1.57D-02
 IDIUse=3 WtCom= 9.39D-01 WtEn= 6.10D-02
 Coeff-Com: -0.984D-02 0.688D-01 0.315D+00 0.626D+00
 Coeff-En:   0.000D+00 0.000D+00 0.998D-01 0.900D+00
 Coeff:     -0.924D-02 0.646D-01 0.302D+00 0.642D+00
 Gap=     0.320 Goal=   None    Shift=    0.000
 RMSDP=5.41D-04 MaxDP=1.18D-02 DE=-1.14D-02 OVMax= 1.88D-02

 Cycle   5  Pass 0  IDiag  1:
 E= -532.092891579213     Delta-E=       -0.001918519882 Rises=F Damp=F
 DIIS: error= 1.77D-03 at cycle   5 NSaved=   5.
 NSaved= 5 IEnMin= 5 EnMin= -532.092891579213     IErMin= 5 ErrMin= 1.77D-03
 ErrMax= 1.77D-03  0.00D+00 EMaxC= 1.00D-01 BMatC= 3.70D-04 BMatP= 2.94D-03
 IDIUse=3 WtCom= 9.82D-01 WtEn= 1.77D-02
 Coeff-Com: -0.311D-02 0.119D-02 0.117D+00 0.355D+00 0.530D+00
 Coeff-En:   0.000D+00 0.000D+00 0.000D+00 0.621D-01 0.938D+00
 Coeff:     -0.306D-02 0.117D-02 0.115D+00 0.350D+00 0.538D+00
 Gap=     0.320 Goal=   None    Shift=    0.000
 RMSDP=1.63D-04 MaxDP=3.87D-03 DE=-1.92D-03 OVMax= 6.72D-03

 Cycle   6  Pass 0  IDiag  1:
 E= -532.093204432440     Delta-E=       -0.000312853227 Rises=F Damp=F
 DIIS: error= 3.50D-04 at cycle   6 NSaved=   6.
 NSaved= 6 IEnMin= 6 EnMin= -532.093204432440     IErMin= 6 ErrMin= 3.50D-04
 ErrMax= 3.50D-04  0.00D+00 EMaxC= 1.00D-01 BMatC= 1.13D-05 BMatP= 3.70D-04
 IDIUse=3 WtCom= 9.97D-01 WtEn= 3.50D-03
 Coeff-Com: -0.401D-04-0.440D-02 0.275D-01 0.886D-01 0.210D+00 0.679D+00
 Coeff-En:   0.000D+00 0.000D+00 0.000D+00 0.000D+00 0.000D+00 0.100D+01
 Coeff:     -0.400D-04-0.439D-02 0.274D-01 0.883D-01 0.209D+00 0.680D+00
 Gap=     0.321 Goal=   None    Shift=    0.000
 RMSDP=3.47D-05 MaxDP=6.43D-04 DE=-3.13D-04 OVMax= 9.04D-04

 Cycle   7  Pass 0  IDiag  1:
 E= -532.093213204927     Delta-E=       -0.000008772487 Rises=F Damp=F
 DIIS: error= 9.67D-05 at cycle   7 NSaved=   7.
 NSaved= 7 IEnMin= 7 EnMin= -532.093213204927     IErMin= 7 ErrMin= 9.67D-05
 ErrMax= 9.67D-05  0.00D+00 EMaxC= 1.00D-01 BMatC= 1.40D-06 BMatP= 1.13D-05
 IDIUse=1 WtCom= 1.00D+00 WtEn= 0.00D+00
 Coeff-Com:  0.511D-03-0.188D-02-0.163D-02-0.105D-01 0.249D-01 0.280D+00
 Coeff-Com:  0.708D+00
 Coeff:      0.511D-03-0.188D-02-0.163D-02-0.105D-01 0.249D-01 0.280D+00
 Coeff:      0.708D+00
 Gap=     0.321 Goal=   None    Shift=    0.000
 RMSDP=1.48D-05 MaxDP=2.31D-04 DE=-8.77D-06 OVMax= 2.84D-04

 Cycle   8  Pass 0  IDiag  1:
 E= -532.093214475896     Delta-E=       -0.000001270968 Rises=F Damp=F
 DIIS: error= 4.43D-05 at cycle   8 NSaved=   8.
 NSaved= 8 IEnMin= 8 EnMin= -532.093214475896     IErMin= 8 ErrMin= 4.43D-05
 ErrMax= 4.43D-05  0.00D+00 EMaxC= 1.00D-01 BMatC= 1.71D-07 BMatP= 1.40D-06
 IDIUse=1 WtCom= 1.00D+00 WtEn= 0.00D+00
 Coeff-Com:  0.256D-03-0.325D-03-0.409D-02-0.173D-01-0.174D-01 0.676D-02
 Coeff-Com:  0.274D+00 0.758D+00
 Coeff:      0.256D-03-0.325D-03-0.409D-02-0.173D-01-0.174D-01 0.676D-02
 Coeff:      0.274D+00 0.758D+00
 Gap=     0.321 Goal=   None    Shift=    0.000
 RMSDP=6.60D-06 MaxDP=1.35D-04 DE=-1.27D-06 OVMax= 1.48D-04

 Initial convergence to 1.0D-05 achieved.  Increase integral accuracy.
 Cycle   9  Pass 1  IDiag  1:
 E= -532.093483536651     Delta-E=       -0.000269060756 Rises=F Damp=F
 DIIS: error= 1.37D-04 at cycle   1 NSaved=   1.
 NSaved= 1 IEnMin= 1 EnMin= -532.093483536651     IErMin= 1 ErrMin= 1.37D-04
 ErrMax= 1.37D-04  0.00D+00 EMaxC= 1.00D-01 BMatC= 2.33D-06 BMatP= 2.33D-06
 IDIUse=3 WtCom= 9.99D-01 WtEn= 1.37D-03
 Coeff-Com:  0.100D+01
 Coeff-En:   0.100D+01
 Coeff:      0.100D+01
 Gap=     0.321 Goal=   None    Shift=    0.000
 RMSDP=6.60D-06 MaxDP=1.35D-04 DE=-2.69D-04 OVMax= 2.10D-04

 Cycle  10  Pass 1  IDiag  1:
 E= -532.093485807402     Delta-E=       -0.000002270750 Rises=F Damp=F
 DIIS: error= 7.63D-05 at cycle   2 NSaved=   2.
 NSaved= 2 IEnMin= 2 EnMin= -532.093485807402     IErMin= 2 ErrMin= 7.63D-05
 ErrMax= 7.63D-05  0.00D+00 EMaxC= 1.00D-01 BMatC= 3.39D-07 BMatP= 2.33D-06
 IDIUse=1 WtCom= 1.00D+00 WtEn= 0.00D+00
 Coeff-Com:  0.170D+00 0.830D+00
 Coeff:      0.170D+00 0.830D+00
 Gap=     0.321 Goal=   None    Shift=    0.000
 RMSDP=7.81D-06 MaxDP=1.50D-04 DE=-2.27D-06 OVMax= 1.63D-04

 Cycle  11  Pass 1  IDiag  1:
 E= -532.093486034331     Delta-E=       -0.000000226929 Rises=F Damp=F
 DIIS: error= 3.95D-05 at cycle   3 NSaved=   3.
 NSaved= 3 IEnMin= 3 EnMin= -532.093486034331     IErMin= 3 ErrMin= 3.95D-05
 ErrMax= 3.95D-05  0.00D+00 EMaxC= 1.00D-01 BMatC= 1.49D-07 BMatP= 3.39D-07
 IDIUse=1 WtCom= 1.00D+00 WtEn= 0.00D+00
 Coeff-Com: -0.433D-01 0.388D+00 0.655D+00
 Coeff:     -0.433D-01 0.388D+00 0.655D+00
 Gap=     0.321 Goal=   None    Shift=    0.000
 RMSDP=3.48D-06 MaxDP=7.39D-05 DE=-2.27D-07 OVMax= 5.87D-05

 Cycle  12  Pass 1  IDiag  1:
 E= -532.093486168260     Delta-E=       -0.000000133929 Rises=F Damp=F
 DIIS: error= 5.82D-06 at cycle   4 NSaved=   4.
 NSaved= 4 IEnMin= 4 EnMin= -532.093486168260     IErMin= 4 ErrMin= 5.82D-06
 ErrMax= 5.82D-06  0.00D+00 EMaxC= 1.00D-01 BMatC= 5.82D-09 BMatP= 1.49D-07
 IDIUse=1 WtCom= 1.00D+00 WtEn= 0.00D+00
 Coeff-Com: -0.260D-01 0.145D+00 0.288D+00 0.592D+00
 Coeff:     -0.260D-01 0.145D+00 0.288D+00 0.592D+00
 Gap=     0.321 Goal=   None    Shift=    0.000
 RMSDP=6.41D-07 MaxDP=1.29D-05 DE=-1.34D-07 OVMax= 1.55D-05

 Cycle  13  Pass 1  IDiag  1:
 E= -532.093486172936     Delta-E=       -0.000000004676 Rises=F Damp=F
 DIIS: error= 1.33D-06 at cycle   5 NSaved=   5.
 NSaved= 5 IEnMin= 5 EnMin= -532.093486172936     IErMin= 5 ErrMin= 1.33D-06
 ErrMax= 1.33D-06  0.00D+00 EMaxC= 1.00D-01 BMatC= 3.64D-10 BMatP= 5.82D-09
 IDIUse=1 WtCom= 1.00D+00 WtEn= 0.00D+00
 Coeff-Com:  0.213D-03-0.221D-01-0.274D-01 0.164D+00 0.886D+00
 Coeff:      0.213D-03-0.221D-01-0.274D-01 0.164D+00 0.886D+00
 Gap=     0.321 Goal=   None    Shift=    0.000
 RMSDP=3.02D-07 MaxDP=4.67D-06 DE=-4.68D-09 OVMax= 6.69D-06

 Cycle  14  Pass 1  IDiag  1:
 E= -532.093486173304     Delta-E=       -0.000000000368 Rises=F Damp=F
 DIIS: error= 8.13D-07 at cycle   6 NSaved=   6.
 NSaved= 6 IEnMin= 6 EnMin= -532.093486173304     IErMin= 6 ErrMin= 8.13D-07
 ErrMax= 8.13D-07  0.00D+00 EMaxC= 1.00D-01 BMatC= 8.17D-11 BMatP= 3.64D-10
 IDIUse=1 WtCom= 1.00D+00 WtEn= 0.00D+00
 Coeff-Com:  0.144D-02-0.191D-01-0.290D-01 0.587D-01 0.468D+00 0.520D+00
 Coeff:      0.144D-02-0.191D-01-0.290D-01 0.587D-01 0.468D+00 0.520D+00
 Gap=     0.321 Goal=   None    Shift=    0.000
 RMSDP=8.28D-08 MaxDP=2.15D-06 DE=-3.68D-10 OVMax= 3.54D-06

 Cycle  15  Pass 1  IDiag  1:
 E= -532.093486173364     Delta-E=       -0.000000000060 Rises=F Damp=F
 DIIS: error= 3.41D-07 at cycle   7 NSaved=   7.
 NSaved= 7 IEnMin= 7 EnMin= -532.093486173364     IErMin= 7 ErrMin= 3.41D-07
 ErrMax= 3.41D-07  0.00D+00 EMaxC= 1.00D-01 BMatC= 7.48D-12 BMatP= 8.17D-11
 IDIUse=1 WtCom= 1.00D+00 WtEn= 0.00D+00
 Coeff-Com:  0.361D-03-0.226D-02-0.445D-02-0.899D-02-0.790D-02 0.219D+00
 Coeff-Com:  0.804D+00
 Coeff:      0.361D-03-0.226D-02-0.445D-02-0.899D-02-0.790D-02 0.219D+00
 Coeff:      0.804D+00
 Gap=     0.321 Goal=   None    Shift=    0.000
 RMSDP=4.03D-08 MaxDP=6.83D-07 DE=-6.00D-11 OVMax= 1.11D-06

 Cycle  16  Pass 1  IDiag  1:
 E= -532.093486173373     Delta-E=       -0.000000000009 Rises=F Damp=F
 DIIS: error= 9.57D-08 at cycle   8 NSaved=   8.
 NSaved= 8 IEnMin= 8 EnMin= -532.093486173373     IErMin= 8 ErrMin= 9.57D-08
 ErrMax= 9.57D-08  0.00D+00 EMaxC= 1.00D-01 BMatC= 1.15D-12 BMatP= 7.48D-12
 IDIUse=1 WtCom= 1.00D+00 WtEn= 0.00D+00
 Coeff-Com:  0.869D-04 0.503D-03 0.180D-03-0.106D-01-0.509D-01 0.686D-01
 Coeff-Com:  0.414D+00 0.579D+00
 Coeff:      0.869D-04 0.503D-03 0.180D-03-0.106D-01-0.509D-01 0.686D-01
 Coeff:      0.414D+00 0.579D+00
 Gap=     0.321 Goal=   None    Shift=    0.000
 RMSDP=1.14D-08 MaxDP=2.44D-07 DE=-9.09D-12 OVMax= 3.21D-07

 Cycle  17  Pass 1  IDiag  1:
 E= -532.093486173379     Delta-E=       -0.000000000006 Rises=F Damp=F
 DIIS: error= 2.40D-08 at cycle   9 NSaved=   9.
 NSaved= 9 IEnMin= 9 EnMin= -532.093486173379     IErMin= 9 ErrMin= 2.40D-08
 ErrMax= 2.40D-08  0.00D+00 EMaxC= 1.00D-01 BMatC= 6.65D-14 BMatP= 1.15D-12
 IDIUse=1 WtCom= 1.00D+00 WtEn= 0.00D+00
 Coeff-Com: -0.250D-04 0.498D-03 0.722D-03-0.239D-02-0.170D-01-0.356D-02
 Coeff-Com:  0.309D-01 0.183D+00 0.808D+00
 Coeff:     -0.250D-04 0.498D-03 0.722D-03-0.239D-02-0.170D-01-0.356D-02
 Coeff:      0.309D-01 0.183D+00 0.808D+00
 Gap=     0.321 Goal=   None    Shift=    0.000
 RMSDP=4.43D-09 MaxDP=6.71D-08 DE=-6.14D-12 OVMax= 1.54D-07

 SCF Done:  E(RM062X) =  -532.093486173     A.U. after   17 cycles
            NFock= 17  Conv=0.44D-08     -V/T= 2.0002
 KE= 5.319718920760D+02 PE=-2.414474059836D+03 EE= 7.587790445470D+02
 Leave Link  502 at Thu Mar 12 19:00:46 2020, MaxMem=    33554432 cpu:        64.9
 (Enter /usr/local/gaussian09d01/g09/l601.exe)
 Copying SCF densities to generalized density rwf, IOpCl= 0 IROHF=0.

 **********************************************************************

            Population analysis using the SCF density.

 **********************************************************************

 Orbital symmetries:
       Occupied  (A) (A) (A) (A) (A) (A) (A) (A) (A) (A) (A) (A)
                 (A) (A) (A) (A) (A) (A) (A) (A) (A) (A) (A) (A)
                 (A) (A) (A) (A) (A) (A) (A) (A) (A) (A) (A) (A)
                 (A) (A) (A) (A)
       Virtual   (A) (A) (A) (A) (A) (A) (A) (A) (A) (A) (A) (A)
                 (A) (A) (A) (A) (A) (A) (A) (A) (A) (A) (A) (A)
                 (A) (A) (A) (A) (A) (A) (A) (A) (A) (A) (A) (A)
                 (A) (A) (A) (A) (A) (A) (A) (A) (A) (A) (A) (A)
                 (A) (A) (A) (A) (A) (A) (A) (A) (A) (A) (A) (A)
                 (A) (A) (A) (A) (A) (A) (A) (A) (A) (A) (A) (A)
                 (A) (A) (A) (A)
 The electronic state is 1-A.
 Alpha  occ. eigenvalues --  -19.89790 -19.84418 -19.81002 -15.00330 -14.93288
 Alpha  occ. eigenvalues --  -10.91282 -10.86628 -10.78467 -10.76139 -10.63186
 Alpha  occ. eigenvalues --   -1.44802  -1.40674  -1.34815  -1.31671  -1.19437
 Alpha  occ. eigenvalues --   -1.09636  -1.01279  -0.95522  -0.92369  -0.90122
 Alpha  occ. eigenvalues --   -0.86147  -0.80438  -0.78750  -0.75310  -0.74292
 Alpha  occ. eigenvalues --   -0.73984  -0.73219  -0.69766  -0.66937  -0.65392
 Alpha  occ. eigenvalues --   -0.64460  -0.62727  -0.61134  -0.58359  -0.57195
 Alpha  occ. eigenvalues --   -0.56989  -0.56068  -0.54628  -0.52060  -0.49861
 Alpha virt. eigenvalues --   -0.17781  -0.12691  -0.07569  -0.03191  -0.01040
 Alpha virt. eigenvalues --    0.00099   0.01105   0.04144   0.04493   0.05103
 Alpha virt. eigenvalues --    0.06014   0.07532   0.09679   0.10572   0.10899
 Alpha virt. eigenvalues --    0.11164   0.11864   0.12511   0.15830   0.18317
 Alpha virt. eigenvalues --    0.20002   0.23128   0.27224   0.38174   0.39551
 Alpha virt. eigenvalues --    0.42832   0.45362   0.47262   0.47971   0.48436
 Alpha virt. eigenvalues --    0.49188   0.51400   0.51870   0.54506   0.57815
 Alpha virt. eigenvalues --    0.58059   0.60423   0.63231   0.64490   0.67410
 Alpha virt. eigenvalues --    0.67945   0.70401   0.74136   0.74912   0.76468
 Alpha virt. eigenvalues --    0.78232   0.80194   0.82851   0.83863   0.84844
 Alpha virt. eigenvalues --    0.87091   0.87477   0.87765   0.89514   0.91665
 Alpha virt. eigenvalues --    0.91863   0.94337   0.94845   0.96230   1.01542
 Alpha virt. eigenvalues --    1.03674   1.06108   1.08756   1.10767   1.11729
 Alpha virt. eigenvalues --    1.16837   1.19328   1.28138   1.31708   1.38951
 Alpha virt. eigenvalues --    1.51836   1.60840   1.70578   1.76041   1.85078
 Alpha virt. eigenvalues --    2.39374
          Condensed to atoms (all electrons):
               1          2          3          4          5          6
     1  C    5.189611   0.375595   0.371602   0.000000   0.370006   0.370807
     2  H    0.375595   0.467642  -0.017878   0.000000  -0.019729  -0.020106
     3  H    0.371602  -0.017878   0.521944   0.000000  -0.029685  -0.030192
     4  H    0.000000   0.000000   0.000000   0.283449   0.000000   0.000000
     5  H    0.370006  -0.019729  -0.029685   0.000000   0.538517  -0.032273
     6  H    0.370807  -0.020106  -0.030192   0.000000  -0.032273   0.544523
     7  C    0.000000   0.000000  -0.000001  -0.006257   0.000000   0.000000
     8  C   -0.000004   0.000001   0.000082   0.000117  -0.000011  -0.000007
     9  C    0.000296   0.000037   0.001466   0.000066  -0.000155  -0.000133
    10  N    0.000000   0.000000  -0.000001   0.000021   0.000000   0.000000
    11  O   -0.001287   0.000015   0.003207   0.000340   0.000043   0.000016
    12  O   -0.005308   0.000175  -0.001607   0.000000  -0.000771  -0.000638
    13  C    0.000000   0.000000   0.000000  -0.015326   0.000000   0.000000
    14  H    0.000000   0.000000   0.000000   0.000031   0.000000   0.000000
    15  H    0.000000   0.000000   0.000000   0.003858   0.000000   0.000000
    16  H    0.000001   0.000000  -0.000002   0.000002   0.000000   0.000000
    17  H    0.000000   0.000000   0.000000  -0.000003   0.000000   0.000000
    18  H   -0.000001   0.000000   0.000000   0.000000   0.000000   0.000000
    19  H    0.027306  -0.000956   0.002072   0.000000   0.005258   0.004764
    20  N    0.000000   0.000000   0.000000   0.005596   0.000000   0.000000
    21  O    0.000000   0.000000   0.000000   0.257083   0.000000   0.000000
    22  H    0.000000   0.000000   0.000000   0.000000   0.000000   0.000000
    23  H    0.000000   0.000000   0.000000  -0.000248   0.000000   0.000000
               7          8          9         10         11         12
     1  C    0.000000  -0.000004   0.000296   0.000000  -0.001287  -0.005308
     2  H    0.000000   0.000001   0.000037   0.000000   0.000015   0.000175
     3  H   -0.000001   0.000082   0.001466  -0.000001   0.003207  -0.001607
     4  H   -0.006257   0.000117   0.000066   0.000021   0.000340   0.000000
     5  H    0.000000  -0.000011  -0.000155   0.000000   0.000043  -0.000771
     6  H    0.000000  -0.000007  -0.000133   0.000000   0.000016  -0.000638
     7  C    5.472941   0.215343  -0.047733  -0.073550   0.007675   0.005360
     8  C    0.215343   5.574347   0.150167   0.192370  -0.124512  -0.148062
     9  C   -0.047733   0.150167   4.754791  -0.049331   0.493223   0.197916
    10  N   -0.073550   0.192370  -0.049331   7.099250   0.002207   0.001752
    11  O    0.007675  -0.124512   0.493223   0.002207   8.125343  -0.108417
    12  O    0.005360  -0.148062   0.197916   0.001752  -0.108417   8.413325
    13  C    0.238433  -0.016939  -0.008003  -0.008817   0.012141  -0.000483
    14  H    0.375717  -0.027277   0.005549  -0.001412   0.000424  -0.000024
    15  H    0.363362  -0.027453  -0.001859   0.003731   0.004643   0.000131
    16  H   -0.043070   0.385684  -0.026805  -0.035323   0.001064   0.000905
    17  H   -0.015587  -0.010259  -0.000838   0.093103   0.000148  -0.000071
    18  H    0.004790  -0.034103  -0.007402   0.320685   0.000223   0.013142
    19  H   -0.000157   0.005333  -0.018920  -0.000116  -0.000747   0.237027
    20  N   -0.101926   0.005083  -0.000085  -0.072766  -0.003356   0.000059
    21  O   -0.069552   0.002792  -0.000495  -0.000163  -0.001735  -0.000001
    22  H   -0.000940  -0.029218   0.004107   0.322182  -0.000080   0.000000
    23  H    0.018566  -0.001123   0.000120   0.002556   0.000258   0.000014
              13         14         15         16         17         18
     1  C    0.000000   0.000000   0.000000   0.000001   0.000000  -0.000001
     2  H    0.000000   0.000000   0.000000   0.000000   0.000000   0.000000
     3  H    0.000000   0.000000   0.000000  -0.000002   0.000000   0.000000
     4  H   -0.015326   0.000031   0.003858   0.000002  -0.000003   0.000000
     5  H    0.000000   0.000000   0.000000   0.000000   0.000000   0.000000
     6  H    0.000000   0.000000   0.000000   0.000000   0.000000   0.000000
     7  C    0.238433   0.375717   0.363362  -0.043070  -0.015587   0.004790
     8  C   -0.016939  -0.027277  -0.027453   0.385684  -0.010259  -0.034103
     9  C   -0.008003   0.005549  -0.001859  -0.026805  -0.000838  -0.007402
    10  N   -0.008817  -0.001412   0.003731  -0.035323   0.093103   0.320685
    11  O    0.012141   0.000424   0.004643   0.001064   0.000148   0.000223
    12  O   -0.000483  -0.000024   0.000131   0.000905  -0.000071   0.013142
    13  C    4.654473  -0.035032  -0.028505   0.004051  -0.010133   0.000266
    14  H   -0.035032   0.435932  -0.015361  -0.003311  -0.000236  -0.000052
    15  H   -0.028505  -0.015361   0.461850  -0.000677   0.000485  -0.000099
    16  H    0.004051  -0.003311  -0.000677   0.456517   0.000967   0.000998
    17  H   -0.010133  -0.000236   0.000485   0.000967   0.259985  -0.000311
    18  H    0.000266  -0.000052  -0.000099   0.000998  -0.000311   0.335004
    19  H   -0.000010   0.000002  -0.000002  -0.000243  -0.000019  -0.000253
    20  N    0.391781  -0.001640   0.004386  -0.000296   0.239631   0.000243
    21  O    0.318955   0.000926  -0.002466  -0.000069   0.001660   0.000002
    22  H   -0.000146   0.001592  -0.000067  -0.003787  -0.001422  -0.020509
    23  H   -0.044644  -0.000299  -0.000241   0.000021  -0.034712  -0.000083
              19         20         21         22         23
     1  C    0.027306   0.000000   0.000000   0.000000   0.000000
     2  H   -0.000956   0.000000   0.000000   0.000000   0.000000
     3  H    0.002072   0.000000   0.000000   0.000000   0.000000
     4  H    0.000000   0.005596   0.257083   0.000000  -0.000248
     5  H    0.005258   0.000000   0.000000   0.000000   0.000000
     6  H    0.004764   0.000000   0.000000   0.000000   0.000000
     7  C   -0.000157  -0.101926  -0.069552  -0.000940   0.018566
     8  C    0.005333   0.005083   0.002792  -0.029218  -0.001123
     9  C   -0.018920  -0.000085  -0.000495   0.004107   0.000120
    10  N   -0.000116  -0.072766  -0.000163   0.322182   0.002556
    11  O   -0.000747  -0.003356  -0.001735  -0.000080   0.000258
    12  O    0.237027   0.000059  -0.000001   0.000000   0.000014
    13  C   -0.000010   0.391781   0.318955  -0.000146  -0.044644
    14  H    0.000002  -0.001640   0.000926   0.001592  -0.000299
    15  H   -0.000002   0.004386  -0.002466  -0.000067  -0.000241
    16  H   -0.000243  -0.000296  -0.000069  -0.003787   0.000021
    17  H   -0.000019   0.239631   0.001660  -0.001422  -0.034712
    18  H   -0.000253   0.000243   0.000002  -0.020509  -0.000083
    19  H    0.273553   0.000011   0.000000   0.000016  -0.000002
    20  N    0.000011   6.494327  -0.095928   0.000841   0.313502
    21  O    0.000000  -0.095928   8.138442   0.000002  -0.017595
    22  H    0.000016   0.000841   0.000002   0.368293  -0.000070
    23  H   -0.000002   0.313502  -0.017595  -0.000070   0.838574
 Mulliken charges:
               1
     1  C   -0.698625
     2  H    0.215204
     3  H    0.178991
     4  H    0.471270
     5  H    0.168800
     6  H    0.163238
     7  C   -0.343414
     8  C   -0.112351
     9  C    0.554021
    10  N   -0.796378
    11  O   -0.410838
    12  O   -0.604425
    13  C    0.547940
    14  H    0.264471
    15  H    0.234284
    16  H    0.263373
    17  H    0.477612
    18  H    0.387457
    19  H    0.466083
    20  N   -0.179465
    21  O   -0.531859
    22  H    0.359206
    23  H   -0.074595
 Sum of Mulliken charges =   1.00000
 Mulliken charges with hydrogens summed into heavy atoms:
               1
     1  C    0.027608
     7  C    0.155341
     8  C    0.151021
     9  C    0.554021
    10  N   -0.049715
    11  O   -0.410838
    12  O   -0.138342
    13  C    0.547940
    20  N    0.223552
    21  O   -0.060589
 Electronic spatial extent (au):  <R**2>=           1987.2062
 Charge=              1.0000 electrons
 Dipole moment (field-independent basis, Debye):
    X=              4.5470    Y=              2.2037    Z=             -1.0337  Tot=              5.1576
 Quadrupole moment (field-independent basis, Debye-Ang):
   XX=            -33.0469   YY=            -47.6933   ZZ=            -50.1160
   XY=             -0.4572   XZ=             -5.4572   YZ=              2.4802
 Traceless Quadrupole moment (field-independent basis, Debye-Ang):
   XX=             10.5718   YY=             -4.0745   ZZ=             -6.4973
   XY=             -0.4572   XZ=             -5.4572   YZ=              2.4802
 Octapole moment (field-independent basis, Debye-Ang**2):
  XXX=            -18.7922  YYY=             15.0373  ZZZ=              6.2012  XYY=             24.6822
  XXY=            -16.4073  XXZ=             -4.3789  XZZ=             17.9969  YZZ=             -1.9978
  YYZ=             -6.8264  XYZ=              9.6849
 Hexadecapole moment (field-independent basis, Debye-Ang**3):
 XXXX=          -1413.9210 YYYY=           -422.0525 ZZZZ=           -205.2924 XXXY=             26.6695
 XXXZ=            -37.5016 YYYX=            -18.1576 YYYZ=             40.1090 ZZZX=             14.8689
 ZZZY=              3.2553 XXYY=           -327.2660 XXZZ=           -299.0611 YYZZ=           -110.9787
 XXYZ=             16.7439 YYXZ=            -28.4069 ZZXY=            -21.2640
 N-N= 5.916296370395D+02 E-N=-2.414474061573D+03  KE= 5.319718920760D+02
 No NMR shielding tensors so no spin-rotation constants.
 Leave Link  601 at Thu Mar 12 19:00:46 2020, MaxMem=    33554432 cpu:         0.1
 (Enter /usr/local/gaussian09d01/g09/l9999.exe)
 1\1\GINC-KARURA\SP\RM062X\6-31G\C5H13N2O3(1+)\RTAKE\12-Mar-2020\0\\#p 
 M062X/6-31G\\chk calc\\1,1\C,0,3.824482709,-1.14219544,1.17225369\H,0,
 4.799113079,-1.62961423,1.173808707\H,0,3.053614027,-1.916312598,1.160
 804944\H,0,-2.540416453,-2.844981592,-1.014302773\H,0,3.75960642,-0.53
 291794,2.07824618\H,0,3.765323683,-0.52154146,0.273951194\C,0,-2.40154
 2122,-0.705499021,0.492562549\C,0,-1.33365594,0.193207044,1.141270536\
 C,0,0.021967089,-0.47033751,0.950186539\N,0,-1.303304814,1.529148773,0
 .515945207\O,0,0.155929117,-1.611462803,0.51692019\O,0,1.024922388,0.3
 53392554,1.298656\C,0,-2.121889445,-0.918337302,-0.967112723\H,0,-3.39
 229932,-0.247402335,0.596496855\H,0,-2.419176945,-1.669900059,1.004436
 439\H,0,-1.526304416,0.239474424,2.221387894\H,0,-1.503902114,0.960750
 702,-1.170400229\H,0,-0.410560182,1.997532273,0.666150752\H,0,1.924402
 159,-0.039925506,1.230818645\N,0,-1.700457396,0.069239192,-1.694919761
 \O,0,-2.336854815,-2.071648312,-1.575178364\H,0,-2.071900591,2.1285565
 43,0.807834339\H,0,-1.607433065,0.007364215,-2.190077107\\Version=ES64
 L-G09RevD.01\State=1-A\HF=-532.0934862\RMSD=4.433e-09\Dipole=-1.947918
 2,0.5662078,0.0495943\Quadrupole=8.2735393,-1.9088864,-6.364653,2.1356
 973,2.4090373,0.6746548\PG=C01 [X(C5H13N2O3)]\\@


 Time has a wonderful way of weeding out the trivial.
                                -- Richard Ben Sapir
 Job cpu time:       0 days  0 hours  1 minutes  6.6 seconds.
 File lengths (MBytes):  RWF=      7 Int=      0 D2E=      0 Chk=      2 Scr=      1
 Normal termination of Gaussian 09 at Thu Mar 12 19:00:46 2020.
