 Entering Gaussian System, Link 0=g09
 Input=./n20_h23_15.gjf
 Output=./n20_h23_15.log
 Initial command:
 /usr/local/gaussian09d01/g09/l1.exe "/scr/Gau-20185.inp" -scrdir="/scr/"
 Entering Link 1 = /usr/local/gaussian09d01/g09/l1.exe PID=     20186.
  
 Copyright (c) 1988,1990,1992,1993,1995,1998,2003,2009,2013,
            Gaussian, Inc.  All Rights Reserved.
  
 This is part of the Gaussian(R) 09 program.  It is based on
 the Gaussian(R) 03 system (copyright 2003, Gaussian, Inc.),
 the Gaussian(R) 98 system (copyright 1998, Gaussian, Inc.),
 the Gaussian(R) 94 system (copyright 1995, Gaussian, Inc.),
 the Gaussian 92(TM) system (copyright 1992, Gaussian, Inc.),
 the Gaussian 90(TM) system (copyright 1990, Gaussian, Inc.),
 the Gaussian 88(TM) system (copyright 1988, Gaussian, Inc.),
 the Gaussian 86(TM) system (copyright 1986, Carnegie Mellon
 University), and the Gaussian 82(TM) system (copyright 1983,
 Carnegie Mellon University). Gaussian is a federally registered
 trademark of Gaussian, Inc.
  
 This software contains proprietary and confidential information,
 including trade secrets, belonging to Gaussian, Inc.
  
 This software is provided under written license and may be
 used, copied, transmitted, or stored only in accord with that
 written license.
  
 The following legend is applicable only to US Government
 contracts under FAR:
  
                    RESTRICTED RIGHTS LEGEND
  
 Use, reproduction and disclosure by the US Government is
 subject to restrictions as set forth in subparagraphs (a)
 and (c) of the Commercial Computer Software - Restricted
 Rights clause in FAR 52.227-19.
  
 Gaussian, Inc.
 340 Quinnipiac St., Bldg. 40, Wallingford CT 06492
  
  
 ---------------------------------------------------------------
 Warning -- This program may not be used in any manner that
 competes with the business of Gaussian, Inc. or will provide
 assistance to any competitor of Gaussian, Inc.  The licensee
 of this program is prohibited from giving any competitor of
 Gaussian, Inc. access to this program.  By using this program,
 the user acknowledges that Gaussian, Inc. is engaged in the
 business of creating and licensing software in the field of
 computational chemistry and represents and warrants to the
 licensee that it is not a competitor of Gaussian, Inc. and that
 it will not use this program in any manner prohibited above.
 ---------------------------------------------------------------
  

 Cite this work as:
 Gaussian 09, Revision D.01,
 M. J. Frisch, G. W. Trucks, H. B. Schlegel, G. E. Scuseria, 
 M. A. Robb, J. R. Cheeseman, G. Scalmani, V. Barone, B. Mennucci, 
 G. A. Petersson, H. Nakatsuji, M. Caricato, X. Li, H. P. Hratchian, 
 A. F. Izmaylov, J. Bloino, G. Zheng, J. L. Sonnenberg, M. Hada, 
 M. Ehara, K. Toyota, R. Fukuda, J. Hasegawa, M. Ishida, T. Nakajima, 
 Y. Honda, O. Kitao, H. Nakai, T. Vreven, J. A. Montgomery, Jr., 
 J. E. Peralta, F. Ogliaro, M. Bearpark, J. J. Heyd, E. Brothers, 
 K. N. Kudin, V. N. Staroverov, T. Keith, R. Kobayashi, J. Normand, 
 K. Raghavachari, A. Rendell, J. C. Burant, S. S. Iyengar, J. Tomasi, 
 M. Cossi, N. Rega, J. M. Millam, M. Klene, J. E. Knox, J. B. Cross, 
 V. Bakken, C. Adamo, J. Jaramillo, R. Gomperts, R. E. Stratmann, 
 O. Yazyev, A. J. Austin, R. Cammi, C. Pomelli, J. W. Ochterski, 
 R. L. Martin, K. Morokuma, V. G. Zakrzewski, G. A. Voth, 
 P. Salvador, J. J. Dannenberg, S. Dapprich, A. D. Daniels, 
 O. Farkas, J. B. Foresman, J. V. Ortiz, J. Cioslowski, 
 and D. J. Fox, Gaussian, Inc., Wallingford CT, 2013.
 
 ******************************************
 Gaussian 09:  ES64L-G09RevD.01 24-Apr-2013
                12-Mar-2020 
 ******************************************
 --------------
 #p M062X/6-31G
 --------------
 1/38=1/1;
 2/12=2,17=6,18=5,40=1/2;
 3/5=1,6=6,11=2,16=1,25=1,30=1,74=-55/1,2,3;
 4//1;
 5/5=2,38=5/2;
 6/7=2,8=2,9=2,10=2,28=1/1;
 99/5=1,9=1/99;
 Leave Link    1 at Thu Mar 12 19:08:22 2020, MaxMem=           0 cpu:         0.0
 (Enter /usr/local/gaussian09d01/g09/l101.exe)
 --------
 chk calc
 --------
 Symbolic Z-matrix:
 Charge =  1 Multiplicity = 1
 C                     3.82448  -1.1422    1.17225 
 H                     4.79911  -1.62961   1.17381 
 H                     3.05361  -1.91631   1.1608 
 H                    -2.54042  -2.84498  -1.0143 
 H                     3.75961  -0.53292   2.07825 
 H                     3.76532  -0.52154   0.27395 
 C                    -2.40154  -0.7055    0.49256 
 C                    -1.33366   0.19321   1.14127 
 C                     0.02197  -0.47034   0.95019 
 N                    -1.3033    1.52915   0.51595 
 O                     0.15593  -1.61146   0.51692 
 O                     1.02492   0.35339   1.29866 
 C                    -2.12189  -0.91834  -0.96711 
 H                    -3.3923   -0.2474    0.5965 
 H                    -2.41918  -1.6699    1.00444 
 H                    -1.5263    0.23947   2.22139 
 H                    -1.5039    0.96075  -1.1704 
 H                    -0.41056   1.99753   0.66615 
 H                     1.9244   -0.03993   1.23082 
 N                    -1.70046   0.06924  -1.69492 
 O                    -2.33685  -2.07165  -1.57518 
 H                    -2.0719    2.12856   0.80783 
 H                    -1.42138  -0.11639  -3.18039 
 
 NAtoms=     23 NQM=       23 NQMF=       0 NMMI=      0 NMMIF=      0
                NMic=       0 NMicF=      0.
                    Isotopes and Nuclear Properties:
 (Nuclear quadrupole moments (NQMom) in fm**2, nuclear magnetic moments (NMagM)
  in nuclear magnetons)

  Atom         1           2           3           4           5           6           7           8           9          10
 IAtWgt=          12           1           1           1           1           1          12          12          12          14
 AtmWgt=  12.0000000   1.0078250   1.0078250   1.0078250   1.0078250   1.0078250  12.0000000  12.0000000  12.0000000  14.0030740
 NucSpn=           0           1           1           1           1           1           0           0           0           2
 AtZEff=   0.0000000   0.0000000   0.0000000   0.0000000   0.0000000   0.0000000   0.0000000   0.0000000   0.0000000   0.0000000
 NQMom=    0.0000000   0.0000000   0.0000000   0.0000000   0.0000000   0.0000000   0.0000000   0.0000000   0.0000000   2.0440000
 NMagM=    0.0000000   2.7928460   2.7928460   2.7928460   2.7928460   2.7928460   0.0000000   0.0000000   0.0000000   0.4037610
 AtZNuc=   6.0000000   1.0000000   1.0000000   1.0000000   1.0000000   1.0000000   6.0000000   6.0000000   6.0000000   7.0000000

  Atom        11          12          13          14          15          16          17          18          19          20
 IAtWgt=          16          16          12           1           1           1           1           1           1          14
 AtmWgt=  15.9949146  15.9949146  12.0000000   1.0078250   1.0078250   1.0078250   1.0078250   1.0078250   1.0078250  14.0030740
 NucSpn=           0           0           0           1           1           1           1           1           1           2
 AtZEff=   0.0000000   0.0000000   0.0000000   0.0000000   0.0000000   0.0000000   0.0000000   0.0000000   0.0000000   0.0000000
 NQMom=    0.0000000   0.0000000   0.0000000   0.0000000   0.0000000   0.0000000   0.0000000   0.0000000   0.0000000   2.0440000
 NMagM=    0.0000000   0.0000000   0.0000000   2.7928460   2.7928460   2.7928460   2.7928460   2.7928460   2.7928460   0.4037610
 AtZNuc=   8.0000000   8.0000000   6.0000000   1.0000000   1.0000000   1.0000000   1.0000000   1.0000000   1.0000000   7.0000000

  Atom        21          22          23
 IAtWgt=          16           1           1
 AtmWgt=  15.9949146   1.0078250   1.0078250
 NucSpn=           0           1           1
 AtZEff=   0.0000000   0.0000000   0.0000000
 NQMom=    0.0000000   0.0000000   0.0000000
 NMagM=    0.0000000   2.7928460   2.7928460
 AtZNuc=   8.0000000   1.0000000   1.0000000
 Leave Link  101 at Thu Mar 12 19:08:22 2020, MaxMem=    33554432 cpu:         0.0
 (Enter /usr/local/gaussian09d01/g09/l202.exe)
                          Input orientation:                          
 ---------------------------------------------------------------------
 Center     Atomic      Atomic             Coordinates (Angstroms)
 Number     Number       Type             X           Y           Z
 ---------------------------------------------------------------------
      1          6           0        3.824483   -1.142195    1.172254
      2          1           0        4.799113   -1.629614    1.173809
      3          1           0        3.053614   -1.916313    1.160805
      4          1           0       -2.540416   -2.844982   -1.014303
      5          1           0        3.759606   -0.532918    2.078246
      6          1           0        3.765324   -0.521541    0.273951
      7          6           0       -2.401542   -0.705499    0.492563
      8          6           0       -1.333656    0.193207    1.141271
      9          6           0        0.021967   -0.470338    0.950187
     10          7           0       -1.303305    1.529149    0.515945
     11          8           0        0.155929   -1.611463    0.516920
     12          8           0        1.024922    0.353393    1.298656
     13          6           0       -2.121889   -0.918337   -0.967113
     14          1           0       -3.392299   -0.247402    0.596497
     15          1           0       -2.419177   -1.669900    1.004436
     16          1           0       -1.526304    0.239474    2.221388
     17          1           0       -1.503902    0.960751   -1.170400
     18          1           0       -0.410560    1.997532    0.666151
     19          1           0        1.924402   -0.039926    1.230819
     20          7           0       -1.700457    0.069239   -1.694920
     21          8           0       -2.336855   -2.071648   -1.575178
     22          1           0       -2.071901    2.128557    0.807834
     23          1           0       -1.421384   -0.116386   -3.180392
 ---------------------------------------------------------------------
                    Distance matrix (angstroms):
                    1          2          3          4          5
     1  C    0.000000
     2  H    1.089717   0.000000
     3  H    1.092532   1.768935   0.000000
     4  H    6.942078   7.754589   6.073442   0.000000
     5  H    1.093732   1.761058   1.803858   7.389167   0.000000
     6  H    1.093462   1.762467   1.799563   6.842538   1.804340
     7  C    6.278222   7.291606   5.627730   2.620556   6.364270
     8  C    5.328288   6.398015   4.868120   3.915783   5.229388
     9  C    3.867794   4.920879   3.365425   4.007987   3.904662
    10  N    5.819023   6.902903   5.591940   4.796365   5.685594
    11  O    3.756056   4.689455   2.983974   3.337138   4.072774
    12  O    3.176523   4.265257   3.047319   5.318930   2.978557
    13  C    6.323476   7.279405   5.684173   1.972143   6.634362
    14  H    7.294799   8.327247   6.682328   3.172979   7.309368
    15  H    6.268167   7.220389   5.480567   2.338979   6.373630
    16  H    5.624999   6.678459   5.171838   4.583883   5.343962
    17  H    6.188869   7.206477   5.872220   3.947446   6.363118
    18  H    5.296189   6.368250   5.250083   5.550689   5.078138
    19  H    2.197438   3.285472   2.191084   5.730926   2.080661
    20  N    6.341389   7.304801   5.890567   3.108288   6.664208
    21  O    6.809871   7.659919   6.047056   0.976762   7.272004
    22  H    6.752626   7.840192   6.538842   5.317497   6.534820
    23  H    6.893253   7.742320   6.489325   3.659154   7.393878
                    6          7          8          9         10
     6  H    0.000000
     7  C    6.173481   0.000000
     8  C    5.221370   1.539115   0.000000
     9  C    3.804292   2.477522   1.521354   0.000000
    10  N    5.473106   2.490045   1.475362   2.437797   0.000000
    11  O    3.778186   2.713305   2.421882   1.227938   3.463063
    12  O    3.053740   3.675826   2.369245   1.343831   2.723175
    13  C    6.029674   1.501385   2.510403   2.910818   2.976530
    14  H    7.170129   1.096474   2.174610   3.439769   2.743450
    15  H    6.332486   1.091969   2.160613   2.720492   3.423114
    16  H    5.689726   2.155888   1.098138   2.125307   2.149773
    17  H    5.661103   2.519443   2.441706   2.978788   1.790831
    18  H    4.892602   3.361625   2.081690   2.521535   1.019283
    19  H    2.129916   4.438671   3.267616   1.970601   3.659389
    20  N    5.839541   2.424215   2.862497   3.202261   2.678990
    21  O    6.561912   2.479133   3.676285   3.808636   4.290310
    22  H    6.432825   2.870528   2.098038   3.340478   1.017462
    23  H    6.244884   3.846863   4.333625   4.389786   4.047794
                   11         12         13         14         15
    11  O    0.000000
    12  O    2.286245   0.000000
    13  C    2.805572   4.080861   0.000000
    14  H    3.802225   4.512852   2.123434   0.000000
    15  H    2.621499   4.005259   2.130782   1.771124   0.000000
    16  H    3.026729   2.715358   3.444094   2.521757   2.433907
    17  H    3.495479   3.586095   1.988519   2.854401   3.533832
    18  H    3.656231   2.272415   3.754796   3.733008   4.195121
    19  H    2.471210   0.984055   4.687748   5.358426   4.644862
    20  N    3.341132   4.058317   1.297157   2.865865   3.290545
    21  O    3.286734   5.043936   1.321393   3.026220   2.612009
    22  H    4.362981   3.603113   3.526542   2.726407   3.819362
    23  H    4.288740   5.125132   2.456102   4.262225   4.574034
                   16         17         18         19         20
    16  H    0.000000
    17  H    3.467704   0.000000
    18  H    2.598926   2.375549   0.000000
    19  H    3.600926   4.303542   3.149942   0.000000
    20  N    3.923872   1.052876   3.310106   4.659557   0.000000
    21  O    4.517986   3.170662   5.029155   5.491796   2.236680
    22  H    2.421661   2.366391   1.672511   4.566362   3.262290
    23  H    5.414505   2.281907   4.504032   5.537049   1.522815
                   21         22         23
    21  O    0.000000
    22  H    4.836390   0.000000
    23  H    2.690325   4.622649   0.000000
 Stoichiometry    C5H13N2O3(1+)
 Framework group  C1[X(C5H13N2O3)]
 Deg. of freedom    63
 Full point group                 C1      NOp   1
 Largest Abelian subgroup         C1      NOp   1
 Largest concise Abelian subgroup C1      NOp   1
                         Standard orientation:                         
 ---------------------------------------------------------------------
 Center     Atomic      Atomic             Coordinates (Angstroms)
 Number     Number       Type             X           Y           Z
 ---------------------------------------------------------------------
      1          6           0       -4.366297   -0.957391    0.315673
      2          1           0       -5.268446   -1.564430    0.387191
      3          1           0       -3.652608   -1.477682   -0.327424
      4          1           0        2.344755   -2.220580   -0.932762
      5          1           0       -4.652168    0.008240   -0.111042
      6          1           0       -3.964841   -0.839358    1.325900
      7          6           0        1.645082    0.304339   -0.983339
      8          6           0        0.412927    1.176319   -0.682805
      9          6           0       -0.767658    0.252647   -0.422865
     10          7           0        0.629277    2.020599    0.507605
     11          8           0       -0.728765   -0.958666   -0.620448
     12          8           0       -1.824856    0.930388    0.055551
     13          6           0        1.946448   -0.625418    0.156348
     14          1           0        2.521536    0.939398   -1.158792
     15          1           0        1.461746   -0.277276   -1.889157
     16          1           0        0.176370    1.766047   -1.578444
     17          1           0        1.459951    0.771303    1.485520
     18          1           0       -0.251207    2.320587    0.924370
     19          1           0       -2.630669    0.385804    0.205407
     20          7           0        1.839881   -0.204816    1.378786
     21          8           0        2.374594   -1.862370   -0.024545
     22          1           0        1.228903    2.823019    0.329283
     23          1           0        2.151773   -1.123340    2.552669
 ---------------------------------------------------------------------
 Rotational constants (GHZ):      1.7872259      0.7151308      0.6054363
 Leave Link  202 at Thu Mar 12 19:08:22 2020, MaxMem=    33554432 cpu:         0.0
 (Enter /usr/local/gaussian09d01/g09/l301.exe)
 Standard basis: 6-31G (6D, 7F)
 Ernie: Thresh=  0.10000D-02 Tol=  0.10000D-05 Strict=F.
 There are   116 symmetry adapted cartesian basis functions of A   symmetry.
 There are   116 symmetry adapted basis functions of A   symmetry.
   116 basis functions,   272 primitive gaussians,   116 cartesian basis functions
    40 alpha electrons       40 beta electrons
       nuclear repulsion energy       584.2005992873 Hartrees.
 IExCor= 4336 DFT=T Ex+Corr=M062X ExCW=0 ScaHFX=  0.540000
 ScaDFX=  1.000000  1.000000  1.000000  1.000000 ScalE2=  1.000000  1.000000
 IRadAn=      0 IRanWt=     -1 IRanGd=            0 ICorTp=0 IEmpDi=  4
 NAtoms=   23 NActive=   23 NUniq=   23 SFac= 1.00D+00 NAtFMM=   60 NAOKFM=F Big=F
 Integral buffers will be    131072 words long.
 Raffenetti 2 integral format.
 Two-electron integral symmetry is turned on.
 Leave Link  301 at Thu Mar 12 19:08:22 2020, MaxMem=    33554432 cpu:         0.0
 (Enter /usr/local/gaussian09d01/g09/l302.exe)
 NPDir=0 NMtPBC=     1 NCelOv=     1 NCel=       1 NClECP=     1 NCelD=      1
         NCelK=      1 NCelE2=     1 NClLst=     1 CellRange=     0.0.
 One-electron integrals computed using PRISM.
 NBasis=   116 RedAO= T EigKep=  3.59D-03  NBF=   116
 NBsUse=   116 1.00D-06 EigRej= -1.00D+00 NBFU=   116
 Precomputing XC quadrature grid using
 IXCGrd= 4 IRadAn=           0 IRanWt=          -1 IRanGd=           0 AccXCQ= 0.00D+00.
 Generated NRdTot=       0 NPtTot=           0 NUsed=           0 NTot=          32
 NSgBfM=   115   115   115   115   115 MxSgAt=    23 MxSgA2=    23.
 Leave Link  302 at Thu Mar 12 19:08:23 2020, MaxMem=    33554432 cpu:         0.3
 (Enter /usr/local/gaussian09d01/g09/l303.exe)
 DipDrv:  MaxL=1.
 Leave Link  303 at Thu Mar 12 19:08:23 2020, MaxMem=    33554432 cpu:         0.0
 (Enter /usr/local/gaussian09d01/g09/l401.exe)
 ExpMin= 1.61D-01 ExpMax= 5.48D+03 ExpMxC= 8.25D+02 IAcc=1 IRadAn=         1 AccDes= 0.00D+00
 Harris functional with IExCor= 1009 and IRadAn=       1 diagonalized for initial guess.
 HarFok:  IExCor= 1009 AccDes= 0.00D+00 IRadAn=         1 IDoV= 1 UseB2=F ITyADJ=14
 ICtDFT=  3500011 ScaDFX=  1.000000  1.000000  1.000000  1.000000
 FoFCou: FMM=F IPFlag=           0 FMFlag=      100000 FMFlg1=           0
         NFxFlg=           0 DoJE=T BraDBF=F KetDBF=T FulRan=T
         wScrn=  0.000000 ICntrl=     500 IOpCl=  0 I1Cent=   200000004 NGrid=           0
         NMat0=    1 NMatS0=      1 NMatT0=    0 NMatD0=    1 NMtDS0=    0 NMtDT0=    0
 Petite list used in FoFCou.
 Harris En= -532.664461153279    
 JPrj=0 DoOrth=F DoCkMO=F.
 Leave Link  401 at Thu Mar 12 19:08:23 2020, MaxMem=    33554432 cpu:         0.8
 (Enter /usr/local/gaussian09d01/g09/l502.exe)
 Closed shell SCF:
 Using DIIS extrapolation, IDIIS=  1040.
 Integral symmetry usage will be decided dynamically.
 Keep R1 ints in memory in canonical form, NReq=24030401.
 IVT=       60528 IEndB=       60528 NGot=    33554432 MDV=    10465614
 LenX=    10465614 LenY=    10451717
 Requested convergence on RMS density matrix=1.00D-08 within 128 cycles.
 Requested convergence on MAX density matrix=1.00D-06.
 Requested convergence on             energy=1.00D-06.
 No special actions if energy rises.
 FoFCou: FMM=F IPFlag=           0 FMFlag=           0 FMFlg1=           0
         NFxFlg=           0 DoJE=F BraDBF=F KetDBF=F FulRan=T
         wScrn=  0.000000 ICntrl=     600 IOpCl=  0 I1Cent=           0 NGrid=           0
         NMat0=    1 NMatS0=   6786 NMatT0=    0 NMatD0=    1 NMtDS0=    0 NMtDT0=    0
 Symmetry not used in FoFCou.
 Integral accuracy reduced to 1.0D-05 until final iterations.

 Cycle   1  Pass 0  IDiag  1:
 E= -532.566144627562    
 DIIS: error= 5.70D-02 at cycle   1 NSaved=   1.
 NSaved= 1 IEnMin= 1 EnMin= -532.566144627562     IErMin= 1 ErrMin= 5.70D-02
 ErrMax= 5.70D-02  0.00D+00 EMaxC= 1.00D-01 BMatC= 3.11D-01 BMatP= 3.11D-01
 IDIUse=3 WtCom= 4.30D-01 WtEn= 5.70D-01
 Coeff-Com:  0.100D+01
 Coeff-En:   0.100D+01
 Coeff:      0.100D+01
 Gap=     0.231 Goal=   None    Shift=    0.000
 GapD=    0.231 DampG=1.000 DampE=0.500 DampFc=0.5000 IDamp=-1.
 Damping current iteration by 5.00D-01
 RMSDP=8.41D-03 MaxDP=1.65D-01              OVMax= 1.83D-01

 Cycle   2  Pass 0  IDiag  1:
 E= -532.691910365252     Delta-E=       -0.125765737690 Rises=F Damp=T
 DIIS: error= 1.04D-02 at cycle   2 NSaved=   2.
 NSaved= 2 IEnMin= 2 EnMin= -532.691910365252     IErMin= 2 ErrMin= 1.04D-02
 ErrMax= 1.04D-02  0.00D+00 EMaxC= 1.00D-01 BMatC= 1.90D-02 BMatP= 3.11D-01
 IDIUse=3 WtCom= 8.96D-01 WtEn= 1.04D-01
 Coeff-Com:  0.374D-01 0.963D+00
 Coeff-En:   0.416D-01 0.958D+00
 Coeff:      0.379D-01 0.962D+00
 Gap=     0.324 Goal=   None    Shift=    0.000
 RMSDP=2.16D-03 MaxDP=3.27D-02 DE=-1.26D-01 OVMax= 1.10D-01

 Cycle   3  Pass 0  IDiag  1:
 E= -532.823312000250     Delta-E=       -0.131401634998 Rises=F Damp=F
 DIIS: error= 1.24D-02 at cycle   3 NSaved=   3.
 NSaved= 3 IEnMin= 3 EnMin= -532.823312000250     IErMin= 2 ErrMin= 1.04D-02
 ErrMax= 1.24D-02  0.00D+00 EMaxC= 1.00D-01 BMatC= 1.49D-02 BMatP= 1.90D-02
 IDIUse=3 WtCom= 8.76D-01 WtEn= 1.24D-01
 Coeff-Com: -0.208D-01 0.470D+00 0.551D+00
 Coeff-En:   0.000D+00 0.000D+00 0.100D+01
 Coeff:     -0.183D-01 0.412D+00 0.607D+00
 Gap=     0.308 Goal=   None    Shift=    0.000
 RMSDP=1.39D-03 MaxDP=3.60D-02 DE=-1.31D-01 OVMax= 5.36D-02

 Cycle   4  Pass 0  IDiag  1:
 E= -532.832814724792     Delta-E=       -0.009502724542 Rises=F Damp=F
 DIIS: error= 8.07D-03 at cycle   4 NSaved=   4.
 NSaved= 4 IEnMin= 4 EnMin= -532.832814724792     IErMin= 4 ErrMin= 8.07D-03
 ErrMax= 8.07D-03  0.00D+00 EMaxC= 1.00D-01 BMatC= 3.82D-03 BMatP= 1.49D-02
 IDIUse=3 WtCom= 9.19D-01 WtEn= 8.07D-02
 Coeff-Com: -0.605D-02 0.319D-01 0.341D+00 0.633D+00
 Coeff-En:   0.000D+00 0.000D+00 0.203D+00 0.797D+00
 Coeff:     -0.556D-02 0.294D-01 0.330D+00 0.646D+00
 Gap=     0.309 Goal=   None    Shift=    0.000
 RMSDP=5.36D-04 MaxDP=1.16D-02 DE=-9.50D-03 OVMax= 1.69D-02

 Cycle   5  Pass 0  IDiag  1:
 E= -532.835565818607     Delta-E=       -0.002751093815 Rises=F Damp=F
 DIIS: error= 1.05D-03 at cycle   5 NSaved=   5.
 NSaved= 5 IEnMin= 5 EnMin= -532.835565818607     IErMin= 5 ErrMin= 1.05D-03
 ErrMax= 1.05D-03  0.00D+00 EMaxC= 1.00D-01 BMatC= 1.67D-04 BMatP= 3.82D-03
 IDIUse=3 WtCom= 9.90D-01 WtEn= 1.05D-02
 Coeff-Com: -0.101D-02-0.785D-02 0.147D+00 0.337D+00 0.525D+00
 Coeff-En:   0.000D+00 0.000D+00 0.000D+00 0.000D+00 0.100D+01
 Coeff:     -0.999D-03-0.777D-02 0.146D+00 0.333D+00 0.530D+00
 Gap=     0.304 Goal=   None    Shift=    0.000
 RMSDP=1.07D-04 MaxDP=2.05D-03 DE=-2.75D-03 OVMax= 3.59D-03

 Cycle   6  Pass 0  IDiag  1:
 E= -532.835710797897     Delta-E=       -0.000144979290 Rises=F Damp=F
 DIIS: error= 3.00D-04 at cycle   6 NSaved=   6.
 NSaved= 6 IEnMin= 6 EnMin= -532.835710797897     IErMin= 6 ErrMin= 3.00D-04
 ErrMax= 3.00D-04  0.00D+00 EMaxC= 1.00D-01 BMatC= 5.39D-06 BMatP= 1.67D-04
 IDIUse=3 WtCom= 9.97D-01 WtEn= 3.00D-03
 Coeff-Com:  0.411D-03-0.418D-02 0.257D-01 0.523D-01 0.166D+00 0.760D+00
 Coeff-En:   0.000D+00 0.000D+00 0.000D+00 0.000D+00 0.000D+00 0.100D+01
 Coeff:      0.410D-03-0.416D-02 0.256D-01 0.522D-01 0.166D+00 0.760D+00
 Gap=     0.305 Goal=   None    Shift=    0.000
 RMSDP=2.81D-05 MaxDP=5.17D-04 DE=-1.45D-04 OVMax= 6.70D-04

 Cycle   7  Pass 0  IDiag  1:
 E= -532.835715231855     Delta-E=       -0.000004433958 Rises=F Damp=F
 DIIS: error= 1.15D-04 at cycle   7 NSaved=   7.
 NSaved= 7 IEnMin= 7 EnMin= -532.835715231855     IErMin= 7 ErrMin= 1.15D-04
 ErrMax= 1.15D-04  0.00D+00 EMaxC= 1.00D-01 BMatC= 1.23D-06 BMatP= 5.39D-06
 IDIUse=3 WtCom= 9.99D-01 WtEn= 1.15D-03
 Coeff-Com:  0.458D-03-0.103D-02-0.109D-01-0.322D-01 0.197D-02 0.379D+00
 Coeff-Com:  0.663D+00
 Coeff-En:   0.000D+00 0.000D+00 0.000D+00 0.000D+00 0.000D+00 0.000D+00
 Coeff-En:   0.100D+01
 Coeff:      0.458D-03-0.103D-02-0.109D-01-0.321D-01 0.197D-02 0.378D+00
 Coeff:      0.663D+00
 Gap=     0.304 Goal=   None    Shift=    0.000
 RMSDP=1.38D-05 MaxDP=2.53D-04 DE=-4.43D-06 OVMax= 3.30D-04

 Cycle   8  Pass 0  IDiag  1:
 E= -532.835716388066     Delta-E=       -0.000001156211 Rises=F Damp=F
 DIIS: error= 3.45D-05 at cycle   8 NSaved=   8.
 NSaved= 8 IEnMin= 8 EnMin= -532.835716388066     IErMin= 8 ErrMin= 3.45D-05
 ErrMax= 3.45D-05  0.00D+00 EMaxC= 1.00D-01 BMatC= 1.47D-07 BMatP= 1.23D-06
 IDIUse=1 WtCom= 1.00D+00 WtEn= 0.00D+00
 Coeff-Com:  0.170D-03 0.260D-04-0.787D-02-0.215D-01-0.190D-01 0.622D-01
 Coeff-Com:  0.306D+00 0.680D+00
 Coeff:      0.170D-03 0.260D-04-0.787D-02-0.215D-01-0.190D-01 0.622D-01
 Coeff:      0.306D+00 0.680D+00
 Gap=     0.305 Goal=   None    Shift=    0.000
 RMSDP=5.32D-06 MaxDP=1.04D-04 DE=-1.16D-06 OVMax= 1.33D-04

 Initial convergence to 1.0D-05 achieved.  Increase integral accuracy.
 Cycle   9  Pass 1  IDiag  1:
 E= -532.835898658569     Delta-E=       -0.000182270502 Rises=F Damp=F
 DIIS: error= 1.34D-04 at cycle   1 NSaved=   1.
 NSaved= 1 IEnMin= 1 EnMin= -532.835898658569     IErMin= 1 ErrMin= 1.34D-04
 ErrMax= 1.34D-04  0.00D+00 EMaxC= 1.00D-01 BMatC= 1.82D-06 BMatP= 1.82D-06
 IDIUse=3 WtCom= 9.99D-01 WtEn= 1.34D-03
 Coeff-Com:  0.100D+01
 Coeff-En:   0.100D+01
 Coeff:      0.100D+01
 Gap=     0.304 Goal=   None    Shift=    0.000
 RMSDP=5.32D-06 MaxDP=1.04D-04 DE=-1.82D-04 OVMax= 1.89D-04

 Cycle  10  Pass 1  IDiag  1:
 E= -532.835900238117     Delta-E=       -0.000001579549 Rises=F Damp=F
 DIIS: error= 7.34D-05 at cycle   2 NSaved=   2.
 NSaved= 2 IEnMin= 2 EnMin= -532.835900238117     IErMin= 2 ErrMin= 7.34D-05
 ErrMax= 7.34D-05  0.00D+00 EMaxC= 1.00D-01 BMatC= 4.33D-07 BMatP= 1.82D-06
 IDIUse=1 WtCom= 1.00D+00 WtEn= 0.00D+00
 Coeff-Com:  0.260D+00 0.740D+00
 Coeff:      0.260D+00 0.740D+00
 Gap=     0.304 Goal=   None    Shift=    0.000
 RMSDP=7.86D-06 MaxDP=1.55D-04 DE=-1.58D-06 OVMax= 1.74D-04

 Cycle  11  Pass 1  IDiag  1:
 E= -532.835900514033     Delta-E=       -0.000000275916 Rises=F Damp=F
 DIIS: error= 3.31D-05 at cycle   3 NSaved=   3.
 NSaved= 3 IEnMin= 3 EnMin= -532.835900514033     IErMin= 3 ErrMin= 3.31D-05
 ErrMax= 3.31D-05  0.00D+00 EMaxC= 1.00D-01 BMatC= 1.82D-07 BMatP= 4.33D-07
 IDIUse=1 WtCom= 1.00D+00 WtEn= 0.00D+00
 Coeff-Com: -0.241D-01 0.383D+00 0.641D+00
 Coeff:     -0.241D-01 0.383D+00 0.641D+00
 Gap=     0.304 Goal=   None    Shift=    0.000
 RMSDP=3.88D-06 MaxDP=9.19D-05 DE=-2.76D-07 OVMax= 1.24D-04

 Cycle  12  Pass 1  IDiag  1:
 E= -532.835900661083     Delta-E=       -0.000000147050 Rises=F Damp=F
 DIIS: error= 1.13D-05 at cycle   4 NSaved=   4.
 NSaved= 4 IEnMin= 4 EnMin= -532.835900661083     IErMin= 4 ErrMin= 1.13D-05
 ErrMax= 1.13D-05  0.00D+00 EMaxC= 1.00D-01 BMatC= 1.77D-08 BMatP= 1.82D-07
 IDIUse=1 WtCom= 1.00D+00 WtEn= 0.00D+00
 Coeff-Com: -0.307D-01 0.165D+00 0.354D+00 0.512D+00
 Coeff:     -0.307D-01 0.165D+00 0.354D+00 0.512D+00
 Gap=     0.305 Goal=   None    Shift=    0.000
 RMSDP=9.77D-07 MaxDP=2.48D-05 DE=-1.47D-07 OVMax= 3.89D-05

 Cycle  13  Pass 1  IDiag  1:
 E= -532.835900676626     Delta-E=       -0.000000015543 Rises=F Damp=F
 DIIS: error= 2.38D-06 at cycle   5 NSaved=   5.
 NSaved= 5 IEnMin= 5 EnMin= -532.835900676626     IErMin= 5 ErrMin= 2.38D-06
 ErrMax= 2.38D-06  0.00D+00 EMaxC= 1.00D-01 BMatC= 3.48D-10 BMatP= 1.77D-08
 IDIUse=1 WtCom= 1.00D+00 WtEn= 0.00D+00
 Coeff-Com: -0.723D-02 0.168D-01 0.510D-01 0.133D+00 0.806D+00
 Coeff:     -0.723D-02 0.168D-01 0.510D-01 0.133D+00 0.806D+00
 Gap=     0.305 Goal=   None    Shift=    0.000
 RMSDP=2.82D-07 MaxDP=5.23D-06 DE=-1.55D-08 OVMax= 6.38D-06

 Cycle  14  Pass 1  IDiag  1:
 E= -532.835900676875     Delta-E=       -0.000000000249 Rises=F Damp=F
 DIIS: error= 1.30D-06 at cycle   6 NSaved=   6.
 NSaved= 6 IEnMin= 6 EnMin= -532.835900676875     IErMin= 6 ErrMin= 1.30D-06
 ErrMax= 1.30D-06  0.00D+00 EMaxC= 1.00D-01 BMatC= 1.74D-10 BMatP= 3.48D-10
 IDIUse=1 WtCom= 1.00D+00 WtEn= 0.00D+00
 Coeff-Com:  0.976D-03-0.153D-01-0.253D-01-0.298D-02 0.455D+00 0.588D+00
 Coeff:      0.976D-03-0.153D-01-0.253D-01-0.298D-02 0.455D+00 0.588D+00
 Gap=     0.305 Goal=   None    Shift=    0.000
 RMSDP=1.07D-07 MaxDP=2.61D-06 DE=-2.49D-10 OVMax= 4.76D-06

 Cycle  15  Pass 1  IDiag  1:
 E= -532.835900677016     Delta-E=       -0.000000000141 Rises=F Damp=F
 DIIS: error= 4.11D-07 at cycle   7 NSaved=   7.
 NSaved= 7 IEnMin= 7 EnMin= -532.835900677016     IErMin= 7 ErrMin= 4.11D-07
 ErrMax= 4.11D-07  0.00D+00 EMaxC= 1.00D-01 BMatC= 8.24D-12 BMatP= 1.74D-10
 IDIUse=1 WtCom= 1.00D+00 WtEn= 0.00D+00
 Coeff-Com:  0.801D-03-0.689D-02-0.134D-01-0.898D-02 0.115D+00 0.239D+00
 Coeff-Com:  0.675D+00
 Coeff:      0.801D-03-0.689D-02-0.134D-01-0.898D-02 0.115D+00 0.239D+00
 Coeff:      0.675D+00
 Gap=     0.305 Goal=   None    Shift=    0.000
 RMSDP=4.58D-08 MaxDP=1.05D-06 DE=-1.41D-10 OVMax= 1.03D-06

 Cycle  16  Pass 1  IDiag  1:
 E= -532.835900677024     Delta-E=       -0.000000000008 Rises=F Damp=F
 DIIS: error= 1.05D-07 at cycle   8 NSaved=   8.
 NSaved= 8 IEnMin= 8 EnMin= -532.835900677024     IErMin= 8 ErrMin= 1.05D-07
 ErrMax= 1.05D-07  0.00D+00 EMaxC= 1.00D-01 BMatC= 2.31D-12 BMatP= 8.24D-12
 IDIUse=1 WtCom= 1.00D+00 WtEn= 0.00D+00
 Coeff-Com:  0.244D-03-0.515D-03-0.216D-02-0.434D-02-0.412D-01 0.943D-02
 Coeff-Com:  0.385D+00 0.653D+00
 Coeff:      0.244D-03-0.515D-03-0.216D-02-0.434D-02-0.412D-01 0.943D-02
 Coeff:      0.385D+00 0.653D+00
 Gap=     0.305 Goal=   None    Shift=    0.000
 RMSDP=1.56D-08 MaxDP=4.53D-07 DE=-7.96D-12 OVMax= 5.70D-07

 Cycle  17  Pass 1  IDiag  1:
 E= -532.835900677028     Delta-E=       -0.000000000003 Rises=F Damp=F
 DIIS: error= 3.10D-08 at cycle   9 NSaved=   9.
 NSaved= 9 IEnMin= 9 EnMin= -532.835900677028     IErMin= 9 ErrMin= 3.10D-08
 ErrMax= 3.10D-08  0.00D+00 EMaxC= 1.00D-01 BMatC= 6.26D-14 BMatP= 2.31D-12
 IDIUse=1 WtCom= 1.00D+00 WtEn= 0.00D+00
 Coeff-Com: -0.415D-04 0.461D-03 0.907D-03 0.454D-03-0.118D-01-0.141D-01
 Coeff-Com: -0.440D-01 0.659D-01 0.100D+01
 Coeff:     -0.415D-04 0.461D-03 0.907D-03 0.454D-03-0.118D-01-0.141D-01
 Coeff:     -0.440D-01 0.659D-01 0.100D+01
 Gap=     0.305 Goal=   None    Shift=    0.000
 RMSDP=5.69D-09 MaxDP=1.07D-07 DE=-3.41D-12 OVMax= 2.46D-07

 SCF Done:  E(RM062X) =  -532.835900677     A.U. after   17 cycles
            NFock= 17  Conv=0.57D-08     -V/T= 2.0061
 KE= 5.295861771607D+02 PE=-2.400539806398D+03 EE= 7.539171292733D+02
 Leave Link  502 at Thu Mar 12 19:09:18 2020, MaxMem=    33554432 cpu:        54.1
 (Enter /usr/local/gaussian09d01/g09/l601.exe)
 Copying SCF densities to generalized density rwf, IOpCl= 0 IROHF=0.

 **********************************************************************

            Population analysis using the SCF density.

 **********************************************************************

 Orbital symmetries:
       Occupied  (A) (A) (A) (A) (A) (A) (A) (A) (A) (A) (A) (A)
                 (A) (A) (A) (A) (A) (A) (A) (A) (A) (A) (A) (A)
                 (A) (A) (A) (A) (A) (A) (A) (A) (A) (A) (A) (A)
                 (A) (A) (A) (A)
       Virtual   (A) (A) (A) (A) (A) (A) (A) (A) (A) (A) (A) (A)
                 (A) (A) (A) (A) (A) (A) (A) (A) (A) (A) (A) (A)
                 (A) (A) (A) (A) (A) (A) (A) (A) (A) (A) (A) (A)
                 (A) (A) (A) (A) (A) (A) (A) (A) (A) (A) (A) (A)
                 (A) (A) (A) (A) (A) (A) (A) (A) (A) (A) (A) (A)
                 (A) (A) (A) (A) (A) (A) (A) (A) (A) (A) (A) (A)
                 (A) (A) (A) (A)
 The electronic state is 1-A.
 Alpha  occ. eigenvalues --  -19.87562 -19.83835 -19.80261 -15.00040 -14.92854
 Alpha  occ. eigenvalues --  -10.88501 -10.85920 -10.77665 -10.75171 -10.62989
 Alpha  occ. eigenvalues --   -1.41914  -1.40015  -1.30995  -1.23254  -1.17870
 Alpha  occ. eigenvalues --   -1.05526  -0.96133  -0.92106  -0.89898  -0.85661
 Alpha  occ. eigenvalues --   -0.79642  -0.78358  -0.75957  -0.73414  -0.72883
 Alpha  occ. eigenvalues --   -0.71976  -0.69124  -0.67707  -0.65474  -0.64267
 Alpha  occ. eigenvalues --   -0.62545  -0.61226  -0.60378  -0.57001  -0.56781
 Alpha  occ. eigenvalues --   -0.55843  -0.55082  -0.53735  -0.51319  -0.48985
 Alpha virt. eigenvalues --   -0.18534  -0.15120  -0.11964  -0.06178  -0.02349
 Alpha virt. eigenvalues --   -0.00386   0.01264   0.02038   0.04935   0.05368
 Alpha virt. eigenvalues --    0.07009   0.07270   0.07971   0.11029   0.11290
 Alpha virt. eigenvalues --    0.11413   0.12479   0.13313   0.16378   0.19025
 Alpha virt. eigenvalues --    0.21341   0.24707   0.28564   0.39264   0.42523
 Alpha virt. eigenvalues --    0.43817   0.46131   0.46741   0.48218   0.48379
 Alpha virt. eigenvalues --    0.50205   0.52163   0.52319   0.55864   0.58347
 Alpha virt. eigenvalues --    0.58927   0.59152   0.61702   0.64686   0.64745
 Alpha virt. eigenvalues --    0.67987   0.68926   0.71309   0.75209   0.75585
 Alpha virt. eigenvalues --    0.77327   0.79056   0.81190   0.83922   0.84410
 Alpha virt. eigenvalues --    0.86348   0.87556   0.88080   0.88389   0.91595
 Alpha virt. eigenvalues --    0.92415   0.92796   0.94670   0.95266   0.96827
 Alpha virt. eigenvalues --    1.02524   1.04177   1.08742   1.10470   1.12613
 Alpha virt. eigenvalues --    1.13706   1.19169   1.25075   1.29150   1.34230
 Alpha virt. eigenvalues --    1.41316   1.53296   1.62940   1.74967   1.76823
 Alpha virt. eigenvalues --    1.86795
          Condensed to atoms (all electrons):
               1          2          3          4          5          6
     1  C    5.189105   0.375429   0.371758   0.000000   0.370277   0.370801
     2  H    0.375429   0.469822  -0.017951   0.000000  -0.019855  -0.020326
     3  H    0.371758  -0.017951   0.520394   0.000000  -0.029488  -0.030103
     4  H    0.000000   0.000000   0.000000   0.295193   0.000000   0.000000
     5  H    0.370277  -0.019855  -0.029488   0.000000   0.538053  -0.032243
     6  H    0.370801  -0.020326  -0.030103   0.000000  -0.032243   0.545793
     7  C    0.000000   0.000000  -0.000001  -0.005650   0.000000   0.000000
     8  C   -0.000005   0.000001   0.000084   0.000145  -0.000011  -0.000007
     9  C    0.000261   0.000038   0.001488   0.000045  -0.000153  -0.000130
    10  N    0.000000   0.000000  -0.000001   0.000026   0.000000   0.000000
    11  O   -0.001317   0.000015   0.003305   0.000359   0.000043   0.000016
    12  O   -0.005223   0.000175  -0.001625   0.000000  -0.000761  -0.000631
    13  C    0.000000   0.000000   0.000000  -0.015545   0.000000   0.000000
    14  H    0.000000   0.000000   0.000000   0.000003   0.000000   0.000000
    15  H    0.000000   0.000000   0.000000   0.003571   0.000000   0.000000
    16  H    0.000001   0.000000  -0.000002   0.000004   0.000000   0.000000
    17  H    0.000000   0.000000   0.000000  -0.000042   0.000000   0.000000
    18  H   -0.000001   0.000000   0.000000   0.000000   0.000000   0.000000
    19  H    0.026859  -0.000935   0.002070   0.000000   0.005169   0.004694
    20  N    0.000000   0.000000   0.000000   0.005673   0.000000   0.000000
    21  O    0.000000   0.000000   0.000000   0.256244   0.000000   0.000000
    22  H    0.000000   0.000000   0.000000  -0.000001   0.000000   0.000000
    23  H    0.000000   0.000000   0.000000   0.000063   0.000000   0.000000
               7          8          9         10         11         12
     1  C    0.000000  -0.000005   0.000261   0.000000  -0.001317  -0.005223
     2  H    0.000000   0.000001   0.000038   0.000000   0.000015   0.000175
     3  H   -0.000001   0.000084   0.001488  -0.000001   0.003305  -0.001625
     4  H   -0.005650   0.000145   0.000045   0.000026   0.000359   0.000000
     5  H    0.000000  -0.000011  -0.000153   0.000000   0.000043  -0.000761
     6  H    0.000000  -0.000007  -0.000130   0.000000   0.000016  -0.000631
     7  C    5.425570   0.219226  -0.047915  -0.076126   0.007935   0.005352
     8  C    0.219226   5.569900   0.151772   0.192647  -0.124228  -0.148405
     9  C   -0.047915   0.151772   4.753302  -0.049248   0.496227   0.194390
    10  N   -0.076126   0.192647  -0.049248   7.094922   0.002193   0.001819
    11  O    0.007935  -0.124228   0.496227   0.002193   8.123096  -0.108497
    12  O    0.005352  -0.148405   0.194390   0.001819  -0.108497   8.419479
    13  C    0.265223  -0.016797  -0.007818  -0.002581   0.010260  -0.000528
    14  H    0.376781  -0.027771   0.005618  -0.001445   0.000413  -0.000026
    15  H    0.367517  -0.027741  -0.002060   0.003843   0.004741   0.000132
    16  H   -0.043709   0.385356  -0.026926  -0.035988   0.001062   0.000890
    17  H   -0.007998  -0.010840  -0.000726   0.090627   0.000203  -0.000060
    18  H    0.004873  -0.034199  -0.007493   0.320509   0.000226   0.013266
    19  H   -0.000158   0.005449  -0.018718  -0.000119  -0.000609   0.237061
    20  N   -0.100306   0.002781   0.000247  -0.072935  -0.003458   0.000048
    21  O   -0.061851   0.002606  -0.000507  -0.000148  -0.001490  -0.000001
    22  H   -0.000870  -0.029038   0.004135   0.321837  -0.000080  -0.000005
    23  H    0.001806  -0.000060  -0.000044   0.000901   0.000006   0.000001
              13         14         15         16         17         18
     1  C    0.000000   0.000000   0.000000   0.000001   0.000000  -0.000001
     2  H    0.000000   0.000000   0.000000   0.000000   0.000000   0.000000
     3  H    0.000000   0.000000   0.000000  -0.000002   0.000000   0.000000
     4  H   -0.015545   0.000003   0.003571   0.000004  -0.000042   0.000000
     5  H    0.000000   0.000000   0.000000   0.000000   0.000000   0.000000
     6  H    0.000000   0.000000   0.000000   0.000000   0.000000   0.000000
     7  C    0.265223   0.376781   0.367517  -0.043709  -0.007998   0.004873
     8  C   -0.016797  -0.027771  -0.027741   0.385356  -0.010840  -0.034199
     9  C   -0.007818   0.005618  -0.002060  -0.026926  -0.000726  -0.007493
    10  N   -0.002581  -0.001445   0.003843  -0.035988   0.090627   0.320509
    11  O    0.010260   0.000413   0.004741   0.001062   0.000203   0.000226
    12  O   -0.000528  -0.000026   0.000132   0.000890  -0.000060   0.013266
    13  C    4.673744  -0.036004  -0.032430   0.004355  -0.027780   0.000152
    14  H   -0.036004   0.444126  -0.016473  -0.003082  -0.000363  -0.000056
    15  H   -0.032430  -0.016473   0.467220  -0.000685   0.000316  -0.000101
    16  H    0.004355  -0.003082  -0.000685   0.462162   0.000996   0.001000
    17  H   -0.027780  -0.000363   0.000316   0.000996   0.270912  -0.000414
    18  H    0.000152  -0.000056  -0.000101   0.001000  -0.000414   0.337693
    19  H   -0.000012   0.000002  -0.000002  -0.000247  -0.000020  -0.000264
    20  N    0.291289  -0.001703   0.004396  -0.000281   0.250303   0.000292
    21  O    0.314115   0.001053  -0.002801  -0.000068   0.001243   0.000002
    22  H   -0.000305   0.001621  -0.000073  -0.003742  -0.001516  -0.020880
    23  H   -0.011240  -0.000055  -0.000040   0.000004   0.000748  -0.000006
              19         20         21         22         23
     1  C    0.026859   0.000000   0.000000   0.000000   0.000000
     2  H   -0.000935   0.000000   0.000000   0.000000   0.000000
     3  H    0.002070   0.000000   0.000000   0.000000   0.000000
     4  H    0.000000   0.005673   0.256244  -0.000001   0.000063
     5  H    0.005169   0.000000   0.000000   0.000000   0.000000
     6  H    0.004694   0.000000   0.000000   0.000000   0.000000
     7  C   -0.000158  -0.100306  -0.061851  -0.000870   0.001806
     8  C    0.005449   0.002781   0.002606  -0.029038  -0.000060
     9  C   -0.018718   0.000247  -0.000507   0.004135  -0.000044
    10  N   -0.000119  -0.072935  -0.000148   0.321837   0.000901
    11  O   -0.000609  -0.003458  -0.001490  -0.000080   0.000006
    12  O    0.237061   0.000048  -0.000001  -0.000005   0.000001
    13  C   -0.000012   0.291289   0.314115  -0.000305  -0.011240
    14  H    0.000002  -0.001703   0.001053   0.001621  -0.000055
    15  H   -0.000002   0.004396  -0.002801  -0.000073  -0.000040
    16  H   -0.000247  -0.000281  -0.000068  -0.003742   0.000004
    17  H   -0.000020   0.250303   0.001243  -0.001516   0.000748
    18  H   -0.000264   0.000292   0.000002  -0.020880  -0.000006
    19  H    0.275421   0.000011   0.000000   0.000017   0.000000
    20  N    0.000011   7.136937  -0.109928   0.000923   0.235024
    21  O    0.000000  -0.109928   8.153235   0.000002  -0.001468
    22  H    0.000017   0.000923   0.000002   0.369969  -0.000012
    23  H    0.000000   0.235024  -0.001468  -0.000012   0.358173
 Mulliken charges:
               1
     1  C   -0.697947
     2  H    0.213587
     3  H    0.180070
     4  H    0.459910
     5  H    0.168967
     6  H    0.162136
     7  C   -0.329699
     8  C   -0.110868
     9  C    0.554215
    10  N   -0.790734
    11  O   -0.410422
    12  O   -0.606852
    13  C    0.591902
    14  H    0.257359
    15  H    0.230671
    16  H    0.258897
    17  H    0.434411
    18  H    0.385400
    19  H    0.464332
    20  N   -0.639314
    21  O   -0.550237
    22  H    0.358017
    23  H    0.416199
 Sum of Mulliken charges =   1.00000
 Mulliken charges with hydrogens summed into heavy atoms:
               1
     1  C    0.026813
     7  C    0.158330
     8  C    0.148030
     9  C    0.554215
    10  N   -0.047316
    11  O   -0.410422
    12  O   -0.142520
    13  C    0.591902
    20  N    0.211296
    21  O   -0.090327
 Electronic spatial extent (au):  <R**2>=           2002.3018
 Charge=              1.0000 electrons
 Dipole moment (field-independent basis, Debye):
    X=              4.8387    Y=              1.6204    Z=              0.5864  Tot=              5.1364
 Quadrupole moment (field-independent basis, Debye-Ang):
   XX=            -33.5667   YY=            -47.6439   ZZ=            -44.7422
   XY=             -1.8345   XZ=             -1.5043   YZ=             -1.0069
 Traceless Quadrupole moment (field-independent basis, Debye-Ang):
   XX=              8.4176   YY=             -5.6596   ZZ=             -2.7579
   XY=             -1.8345   XZ=             -1.5043   YZ=             -1.0069
 Octapole moment (field-independent basis, Debye-Ang**2):
  XXX=            -21.3859  YYY=             16.0518  ZZZ=             22.7336  XYY=             24.7960
  XXY=            -19.6372  XXZ=              3.5107  XZZ=             31.6522  YZZ=            -13.3394
  YYZ=             -1.9203  XYZ=              1.6360
 Hexadecapole moment (field-independent basis, Debye-Ang**3):
 XXXX=          -1443.5580 YYYY=           -433.3389 ZZZZ=           -169.5463 XXXY=             21.2861
 XXXZ=            -21.9189 YYYX=            -15.5861 YYYZ=             34.8538 ZZZX=             53.9441
 ZZZY=            -27.1122 XXYY=           -328.7600 XXZZ=           -272.6847 YYZZ=            -99.3419
 XXYZ=             -1.0953 YYXZ=            -17.2722 ZZXY=            -47.9974
 N-N= 5.842005992873D+02 E-N=-2.400539804767D+03  KE= 5.295861771607D+02
 No NMR shielding tensors so no spin-rotation constants.
 Leave Link  601 at Thu Mar 12 19:09:18 2020, MaxMem=    33554432 cpu:         0.1
 (Enter /usr/local/gaussian09d01/g09/l9999.exe)
 1\1\GINC-KARURA\SP\RM062X\6-31G\C5H13N2O3(1+)\RTAKE\12-Mar-2020\0\\#p 
 M062X/6-31G\\chk calc\\1,1\C,0,3.824482709,-1.14219544,1.17225369\H,0,
 4.799113079,-1.62961423,1.173808707\H,0,3.053614027,-1.916312598,1.160
 804944\H,0,-2.540416453,-2.844981592,-1.014302773\H,0,3.75960642,-0.53
 291794,2.07824618\H,0,3.765323683,-0.52154146,0.273951194\C,0,-2.40154
 2122,-0.705499021,0.492562549\C,0,-1.33365594,0.193207044,1.141270536\
 C,0,0.021967089,-0.47033751,0.950186539\N,0,-1.303304814,1.529148773,0
 .515945207\O,0,0.155929117,-1.611462803,0.51692019\O,0,1.024922388,0.3
 53392554,1.298656\C,0,-2.121889445,-0.918337302,-0.967112723\H,0,-3.39
 229932,-0.247402335,0.596496855\H,0,-2.419176945,-1.669900059,1.004436
 439\H,0,-1.526304416,0.239474424,2.221387894\H,0,-1.503902114,0.960750
 702,-1.170400229\H,0,-0.410560182,1.997532273,0.666150752\H,0,1.924402
 159,-0.039925506,1.230818645\N,0,-1.700457396,0.069239192,-1.694919761
 \O,0,-2.336854815,-2.071648312,-1.575178364\H,0,-2.071900591,2.1285565
 43,0.807834339\H,0,-1.421384404,-0.116385738,-3.180391799\\Version=ES6
 4L-G09RevD.01\State=1-A\HF=-532.8359007\RMSD=5.690e-09\Dipole=-1.80529
 38,0.6718294,-0.6109197\Quadrupole=5.2434347,-4.3109482,-0.9324866,1.8
 069819,2.7310635,0.1079476\PG=C01 [X(C5H13N2O3)]\\@


 SOME PHYSICISTS WOULD PREFER TO COME BACK TO THE IDEA OF AN OBJECTIVE
 REAL WORLD WHOSE SMALLEST PARTS EXIST OBJECTIVELY IN THE SAME SENSE AS
 STONES OR TREES EXIST INDEPENDENTLY OF WHETHER WE OBSERVE THEM.
 THIS, HOWEVER, IS IMPOSSIBLE.  -- WERNER HEISENBERG
 Job cpu time:       0 days  0 hours  0 minutes 55.5 seconds.
 File lengths (MBytes):  RWF=      7 Int=      0 D2E=      0 Chk=      2 Scr=      1
 Normal termination of Gaussian 09 at Thu Mar 12 19:09:18 2020.
