 Entering Gaussian System, Link 0=g09
 Input=n20_h23_12.gjf
 Output=n20_h23_12.log
 Initial command:
 /usr/local/gaussian09d01/g09/l1.exe "/scr/Gau-21216.inp" -scrdir="/scr/"
 Entering Link 1 = /usr/local/gaussian09d01/g09/l1.exe PID=     21217.
  
 Copyright (c) 1988,1990,1992,1993,1995,1998,2003,2009,2013,
            Gaussian, Inc.  All Rights Reserved.
  
 This is part of the Gaussian(R) 09 program.  It is based on
 the Gaussian(R) 03 system (copyright 2003, Gaussian, Inc.),
 the Gaussian(R) 98 system (copyright 1998, Gaussian, Inc.),
 the Gaussian(R) 94 system (copyright 1995, Gaussian, Inc.),
 the Gaussian 92(TM) system (copyright 1992, Gaussian, Inc.),
 the Gaussian 90(TM) system (copyright 1990, Gaussian, Inc.),
 the Gaussian 88(TM) system (copyright 1988, Gaussian, Inc.),
 the Gaussian 86(TM) system (copyright 1986, Carnegie Mellon
 University), and the Gaussian 82(TM) system (copyright 1983,
 Carnegie Mellon University). Gaussian is a federally registered
 trademark of Gaussian, Inc.
  
 This software contains proprietary and confidential information,
 including trade secrets, belonging to Gaussian, Inc.
  
 This software is provided under written license and may be
 used, copied, transmitted, or stored only in accord with that
 written license.
  
 The following legend is applicable only to US Government
 contracts under FAR:
  
                    RESTRICTED RIGHTS LEGEND
  
 Use, reproduction and disclosure by the US Government is
 subject to restrictions as set forth in subparagraphs (a)
 and (c) of the Commercial Computer Software - Restricted
 Rights clause in FAR 52.227-19.
  
 Gaussian, Inc.
 340 Quinnipiac St., Bldg. 40, Wallingford CT 06492
  
  
 ---------------------------------------------------------------
 Warning -- This program may not be used in any manner that
 competes with the business of Gaussian, Inc. or will provide
 assistance to any competitor of Gaussian, Inc.  The licensee
 of this program is prohibited from giving any competitor of
 Gaussian, Inc. access to this program.  By using this program,
 the user acknowledges that Gaussian, Inc. is engaged in the
 business of creating and licensing software in the field of
 computational chemistry and represents and warrants to the
 licensee that it is not a competitor of Gaussian, Inc. and that
 it will not use this program in any manner prohibited above.
 ---------------------------------------------------------------
  

 Cite this work as:
 Gaussian 09, Revision D.01,
 M. J. Frisch, G. W. Trucks, H. B. Schlegel, G. E. Scuseria, 
 M. A. Robb, J. R. Cheeseman, G. Scalmani, V. Barone, B. Mennucci, 
 G. A. Petersson, H. Nakatsuji, M. Caricato, X. Li, H. P. Hratchian, 
 A. F. Izmaylov, J. Bloino, G. Zheng, J. L. Sonnenberg, M. Hada, 
 M. Ehara, K. Toyota, R. Fukuda, J. Hasegawa, M. Ishida, T. Nakajima, 
 Y. Honda, O. Kitao, H. Nakai, T. Vreven, J. A. Montgomery, Jr., 
 J. E. Peralta, F. Ogliaro, M. Bearpark, J. J. Heyd, E. Brothers, 
 K. N. Kudin, V. N. Staroverov, T. Keith, R. Kobayashi, J. Normand, 
 K. Raghavachari, A. Rendell, J. C. Burant, S. S. Iyengar, J. Tomasi, 
 M. Cossi, N. Rega, J. M. Millam, M. Klene, J. E. Knox, J. B. Cross, 
 V. Bakken, C. Adamo, J. Jaramillo, R. Gomperts, R. E. Stratmann, 
 O. Yazyev, A. J. Austin, R. Cammi, C. Pomelli, J. W. Ochterski, 
 R. L. Martin, K. Morokuma, V. G. Zakrzewski, G. A. Voth, 
 P. Salvador, J. J. Dannenberg, S. Dapprich, A. D. Daniels, 
 O. Farkas, J. B. Foresman, J. V. Ortiz, J. Cioslowski, 
 and D. J. Fox, Gaussian, Inc., Wallingford CT, 2013.
 
 ******************************************
 Gaussian 09:  ES64L-G09RevD.01 24-Apr-2013
                12-Mar-2020 
 ******************************************
 --------------
 #p M062X/6-31G
 --------------
 1/38=1/1;
 2/12=2,17=6,18=5,40=1/2;
 3/5=1,6=6,11=2,16=1,25=1,30=1,74=-55/1,2,3;
 4//1;
 5/5=2,38=5/2;
 6/7=2,8=2,9=2,10=2,28=1/1;
 99/5=1,9=1/99;
 Leave Link    1 at Thu Mar 12 19:16:12 2020, MaxMem=           0 cpu:         0.0
 (Enter /usr/local/gaussian09d01/g09/l101.exe)
 --------
 chk calc
 --------
 Symbolic Z-matrix:
 Charge =  1 Multiplicity = 1
 C                     3.82448  -1.1422    1.17225 
 H                     4.79911  -1.62961   1.17381 
 H                     3.05361  -1.91631   1.1608 
 H                    -2.54042  -2.84498  -1.0143 
 H                     3.75961  -0.53292   2.07825 
 H                     3.76532  -0.52154   0.27395 
 C                    -2.40154  -0.7055    0.49256 
 C                    -1.33366   0.19321   1.14127 
 C                     0.02197  -0.47034   0.95019 
 N                    -1.3033    1.52915   0.51595 
 O                     0.15593  -1.61146   0.51692 
 O                     1.02492   0.35339   1.29866 
 C                    -2.12189  -0.91834  -0.96711 
 H                    -3.3923   -0.2474    0.5965 
 H                    -2.41918  -1.6699    1.00444 
 H                    -1.5263    0.23947   2.22139 
 H                    -1.5039    0.96075  -1.1704 
 H                    -0.41056   1.99753   0.66615 
 H                     1.9244   -0.03993   1.23082 
 N                    -1.70046   0.06924  -1.69492 
 O                    -2.33685  -2.07165  -1.57518 
 H                    -2.0719    2.12856   0.80783 
 H                    -1.4772   -0.07926  -2.8833 
 
 NAtoms=     23 NQM=       23 NQMF=       0 NMMI=      0 NMMIF=      0
                NMic=       0 NMicF=      0.
                    Isotopes and Nuclear Properties:
 (Nuclear quadrupole moments (NQMom) in fm**2, nuclear magnetic moments (NMagM)
  in nuclear magnetons)

  Atom         1           2           3           4           5           6           7           8           9          10
 IAtWgt=          12           1           1           1           1           1          12          12          12          14
 AtmWgt=  12.0000000   1.0078250   1.0078250   1.0078250   1.0078250   1.0078250  12.0000000  12.0000000  12.0000000  14.0030740
 NucSpn=           0           1           1           1           1           1           0           0           0           2
 AtZEff=   0.0000000   0.0000000   0.0000000   0.0000000   0.0000000   0.0000000   0.0000000   0.0000000   0.0000000   0.0000000
 NQMom=    0.0000000   0.0000000   0.0000000   0.0000000   0.0000000   0.0000000   0.0000000   0.0000000   0.0000000   2.0440000
 NMagM=    0.0000000   2.7928460   2.7928460   2.7928460   2.7928460   2.7928460   0.0000000   0.0000000   0.0000000   0.4037610
 AtZNuc=   6.0000000   1.0000000   1.0000000   1.0000000   1.0000000   1.0000000   6.0000000   6.0000000   6.0000000   7.0000000

  Atom        11          12          13          14          15          16          17          18          19          20
 IAtWgt=          16          16          12           1           1           1           1           1           1          14
 AtmWgt=  15.9949146  15.9949146  12.0000000   1.0078250   1.0078250   1.0078250   1.0078250   1.0078250   1.0078250  14.0030740
 NucSpn=           0           0           0           1           1           1           1           1           1           2
 AtZEff=   0.0000000   0.0000000   0.0000000   0.0000000   0.0000000   0.0000000   0.0000000   0.0000000   0.0000000   0.0000000
 NQMom=    0.0000000   0.0000000   0.0000000   0.0000000   0.0000000   0.0000000   0.0000000   0.0000000   0.0000000   2.0440000
 NMagM=    0.0000000   0.0000000   0.0000000   2.7928460   2.7928460   2.7928460   2.7928460   2.7928460   2.7928460   0.4037610
 AtZNuc=   8.0000000   8.0000000   6.0000000   1.0000000   1.0000000   1.0000000   1.0000000   1.0000000   1.0000000   7.0000000

  Atom        21          22          23
 IAtWgt=          16           1           1
 AtmWgt=  15.9949146   1.0078250   1.0078250
 NucSpn=           0           1           1
 AtZEff=   0.0000000   0.0000000   0.0000000
 NQMom=    0.0000000   0.0000000   0.0000000
 NMagM=    0.0000000   2.7928460   2.7928460
 AtZNuc=   8.0000000   1.0000000   1.0000000
 Leave Link  101 at Thu Mar 12 19:16:12 2020, MaxMem=    33554432 cpu:         0.1
 (Enter /usr/local/gaussian09d01/g09/l202.exe)
                          Input orientation:                          
 ---------------------------------------------------------------------
 Center     Atomic      Atomic             Coordinates (Angstroms)
 Number     Number       Type             X           Y           Z
 ---------------------------------------------------------------------
      1          6           0        3.824483   -1.142195    1.172254
      2          1           0        4.799113   -1.629614    1.173809
      3          1           0        3.053614   -1.916313    1.160805
      4          1           0       -2.540416   -2.844982   -1.014303
      5          1           0        3.759606   -0.532918    2.078246
      6          1           0        3.765324   -0.521541    0.273951
      7          6           0       -2.401542   -0.705499    0.492563
      8          6           0       -1.333656    0.193207    1.141271
      9          6           0        0.021967   -0.470338    0.950187
     10          7           0       -1.303305    1.529149    0.515945
     11          8           0        0.155929   -1.611463    0.516920
     12          8           0        1.024922    0.353393    1.298656
     13          6           0       -2.121889   -0.918337   -0.967113
     14          1           0       -3.392299   -0.247402    0.596497
     15          1           0       -2.419177   -1.669900    1.004436
     16          1           0       -1.526304    0.239474    2.221388
     17          1           0       -1.503902    0.960751   -1.170400
     18          1           0       -0.410560    1.997532    0.666151
     19          1           0        1.924402   -0.039926    1.230819
     20          7           0       -1.700457    0.069239   -1.694920
     21          8           0       -2.336855   -2.071648   -1.575178
     22          1           0       -2.071901    2.128557    0.807834
     23          1           0       -1.477199   -0.079261   -2.883297
 ---------------------------------------------------------------------
                    Distance matrix (angstroms):
                    1          2          3          4          5
     1  C    0.000000
     2  H    1.089717   0.000000
     3  H    1.092532   1.768935   0.000000
     4  H    6.942078   7.754589   6.073442   0.000000
     5  H    1.093732   1.761058   1.803858   7.389167   0.000000
     6  H    1.093462   1.762467   1.799563   6.842538   1.804340
     7  C    6.278222   7.291606   5.627730   2.620556   6.364270
     8  C    5.328288   6.398015   4.868120   3.915783   5.229388
     9  C    3.867794   4.920879   3.365425   4.007987   3.904662
    10  N    5.819023   6.902903   5.591940   4.796365   5.685594
    11  O    3.756056   4.689455   2.983974   3.337138   4.072774
    12  O    3.176523   4.265257   3.047319   5.318930   2.978557
    13  C    6.323476   7.279405   5.684173   1.972143   6.634362
    14  H    7.294799   8.327247   6.682328   3.172979   7.309368
    15  H    6.268167   7.220389   5.480567   2.338979   6.373630
    16  H    5.624999   6.678459   5.171838   4.583883   5.343962
    17  H    6.188869   7.206477   5.872220   3.947446   6.363118
    18  H    5.296189   6.368250   5.250083   5.550689   5.078138
    19  H    2.197438   3.285472   2.191084   5.730926   2.080661
    20  N    6.341389   7.304801   5.890567   3.108288   6.664208
    21  O    6.809871   7.659919   6.047056   0.976762   7.272004
    22  H    6.752626   7.840192   6.538842   5.317497   6.534820
    23  H    6.759079   7.632549   6.344903   3.503253   7.228198
                    6          7          8          9         10
     6  H    0.000000
     7  C    6.173481   0.000000
     8  C    5.221370   1.539115   0.000000
     9  C    3.804292   2.477522   1.521354   0.000000
    10  N    5.473106   2.490045   1.475362   2.437797   0.000000
    11  O    3.778186   2.713305   2.421882   1.227938   3.463063
    12  O    3.053740   3.675826   2.369245   1.343831   2.723175
    13  C    6.029674   1.501385   2.510403   2.910818   2.976530
    14  H    7.170129   1.096474   2.174610   3.439769   2.743450
    15  H    6.332486   1.091969   2.160613   2.720492   3.423114
    16  H    5.689726   2.155888   1.098138   2.125307   2.149773
    17  H    5.661103   2.519443   2.441706   2.978788   1.790831
    18  H    4.892602   3.361625   2.081690   2.521535   1.019283
    19  H    2.129916   4.438671   3.267616   1.970601   3.659389
    20  N    5.839541   2.424215   2.862497   3.202261   2.678990
    21  O    6.561912   2.479133   3.676285   3.808636   4.290310
    22  H    6.432825   2.870528   2.098038   3.340478   1.017462
    23  H    6.135786   3.555702   4.036334   4.134736   3.764581
                   11         12         13         14         15
    11  O    0.000000
    12  O    2.286245   0.000000
    13  C    2.805572   4.080861   0.000000
    14  H    3.802225   4.512852   2.123434   0.000000
    15  H    2.621499   4.005259   2.130782   1.771124   0.000000
    16  H    3.026729   2.715358   3.444094   2.521757   2.433907
    17  H    3.495479   3.586095   1.988519   2.854401   3.533832
    18  H    3.656231   2.272415   3.754796   3.733008   4.195121
    19  H    2.471210   0.984055   4.687748   5.358426   4.644862
    20  N    3.341132   4.058317   1.297157   2.865865   3.290545
    21  O    3.286734   5.043936   1.321393   3.026220   2.612009
    22  H    4.362981   3.603113   3.526542   2.726407   3.819362
    23  H    4.071392   4.892498   2.188936   3.975531   4.304873
                   16         17         18         19         20
    16  H    0.000000
    17  H    3.467704   0.000000
    18  H    2.598926   2.375549   0.000000
    19  H    3.600926   4.303542   3.149942   0.000000
    20  N    3.923872   1.052876   3.310106   4.659557   0.000000
    21  O    4.517986   3.170662   5.029155   5.491796   2.236680
    22  H    2.421661   2.366391   1.672511   4.566362   3.262290
    23  H    5.114862   2.004084   4.248455   5.338388   1.218252
                   21         22         23
    21  O    0.000000
    22  H    4.836390   0.000000
    23  H    2.533731   4.341956   0.000000
 Stoichiometry    C5H13N2O3(1+)
 Framework group  C1[X(C5H13N2O3)]
 Deg. of freedom    63
 Full point group                 C1      NOp   1
 Largest Abelian subgroup         C1      NOp   1
 Largest concise Abelian subgroup C1      NOp   1
                         Standard orientation:                         
 ---------------------------------------------------------------------
 Center     Atomic      Atomic             Coordinates (Angstroms)
 Number     Number       Type             X           Y           Z
 ---------------------------------------------------------------------
      1          6           0       -4.367890   -0.948657    0.319137
      2          1           0       -5.271277   -1.553345    0.394818
      3          1           0       -3.653841   -1.476565   -0.317318
      4          1           0        2.343384   -2.236134   -0.903020
      5          1           0       -4.651151    0.013210   -0.117699
      6          1           0       -3.968268   -0.821343    1.328965
      7          6           0        1.648377    0.289406   -0.980018
      8          6           0        0.417193    1.166519   -0.690649
      9          6           0       -0.765582    0.247578   -0.423990
     10          7           0        0.632657    2.022159    0.491784
     11          8           0       -0.728478   -0.965701   -0.609492
     12          8           0       -1.822521    0.931911    0.045532
     13          6           0        1.945755   -0.629556    0.169430
     14          1           0        2.526330    0.921129   -1.159959
     15          1           0        1.465826   -0.300823   -1.880407
     16          1           0        0.183517    1.747770   -1.592564
     17          1           0        1.459091    0.781127    1.483713
     18          1           0       -0.248125    2.327832    0.903759
     19          1           0       -2.629619    0.390278    0.199126
     20          7           0        1.837472   -0.196679    1.387424
     21          8           0        2.372031   -1.869001    0.001666
     22          1           0        1.234092    2.821701    0.306753
     23          1           0        2.083756   -0.922606    2.334267
 ---------------------------------------------------------------------
 Rotational constants (GHZ):      1.7966965      0.7166134      0.6058977
 Leave Link  202 at Thu Mar 12 19:16:12 2020, MaxMem=    33554432 cpu:         0.0
 (Enter /usr/local/gaussian09d01/g09/l301.exe)
 Standard basis: 6-31G (6D, 7F)
 Ernie: Thresh=  0.10000D-02 Tol=  0.10000D-05 Strict=F.
 There are   116 symmetry adapted cartesian basis functions of A   symmetry.
 There are   116 symmetry adapted basis functions of A   symmetry.
   116 basis functions,   272 primitive gaussians,   116 cartesian basis functions
    40 alpha electrons       40 beta electrons
       nuclear repulsion energy       585.4843894860 Hartrees.
 IExCor= 4336 DFT=T Ex+Corr=M062X ExCW=0 ScaHFX=  0.540000
 ScaDFX=  1.000000  1.000000  1.000000  1.000000 ScalE2=  1.000000  1.000000
 IRadAn=      0 IRanWt=     -1 IRanGd=            0 ICorTp=0 IEmpDi=  4
 NAtoms=   23 NActive=   23 NUniq=   23 SFac= 1.00D+00 NAtFMM=   60 NAOKFM=F Big=F
 Integral buffers will be    131072 words long.
 Raffenetti 2 integral format.
 Two-electron integral symmetry is turned on.
 Leave Link  301 at Thu Mar 12 19:16:12 2020, MaxMem=    33554432 cpu:         0.0
 (Enter /usr/local/gaussian09d01/g09/l302.exe)
 NPDir=0 NMtPBC=     1 NCelOv=     1 NCel=       1 NClECP=     1 NCelD=      1
         NCelK=      1 NCelE2=     1 NClLst=     1 CellRange=     0.0.
 One-electron integrals computed using PRISM.
 NBasis=   116 RedAO= T EigKep=  3.54D-03  NBF=   116
 NBsUse=   116 1.00D-06 EigRej= -1.00D+00 NBFU=   116
 Precomputing XC quadrature grid using
 IXCGrd= 4 IRadAn=           0 IRanWt=          -1 IRanGd=           0 AccXCQ= 0.00D+00.
 Generated NRdTot=       0 NPtTot=           0 NUsed=           0 NTot=          32
 NSgBfM=   115   115   115   115   115 MxSgAt=    23 MxSgA2=    23.
 Leave Link  302 at Thu Mar 12 19:16:13 2020, MaxMem=    33554432 cpu:         0.3
 (Enter /usr/local/gaussian09d01/g09/l303.exe)
 DipDrv:  MaxL=1.
 Leave Link  303 at Thu Mar 12 19:16:13 2020, MaxMem=    33554432 cpu:         0.0
 (Enter /usr/local/gaussian09d01/g09/l401.exe)
 ExpMin= 1.61D-01 ExpMax= 5.48D+03 ExpMxC= 8.25D+02 IAcc=1 IRadAn=         1 AccDes= 0.00D+00
 Harris functional with IExCor= 1009 and IRadAn=       1 diagonalized for initial guess.
 HarFok:  IExCor= 1009 AccDes= 0.00D+00 IRadAn=         1 IDoV= 1 UseB2=F ITyADJ=14
 ICtDFT=  3500011 ScaDFX=  1.000000  1.000000  1.000000  1.000000
 FoFCou: FMM=F IPFlag=           0 FMFlag=      100000 FMFlg1=           0
         NFxFlg=           0 DoJE=T BraDBF=F KetDBF=T FulRan=T
         wScrn=  0.000000 ICntrl=     500 IOpCl=  0 I1Cent=   200000004 NGrid=           0
         NMat0=    1 NMatS0=      1 NMatT0=    0 NMatD0=    1 NMtDS0=    0 NMtDT0=    0
 Petite list used in FoFCou.
 Harris En= -532.718765980074    
 JPrj=0 DoOrth=F DoCkMO=F.
 Leave Link  401 at Thu Mar 12 19:16:14 2020, MaxMem=    33554432 cpu:         0.8
 (Enter /usr/local/gaussian09d01/g09/l502.exe)
 Closed shell SCF:
 Using DIIS extrapolation, IDIIS=  1040.
 Integral symmetry usage will be decided dynamically.
 Keep R1 ints in memory in canonical form, NReq=24030401.
 IVT=       60528 IEndB=       60528 NGot=    33554432 MDV=    10465614
 LenX=    10465614 LenY=    10451717
 Requested convergence on RMS density matrix=1.00D-08 within 128 cycles.
 Requested convergence on MAX density matrix=1.00D-06.
 Requested convergence on             energy=1.00D-06.
 No special actions if energy rises.
 FoFCou: FMM=F IPFlag=           0 FMFlag=           0 FMFlg1=           0
         NFxFlg=           0 DoJE=F BraDBF=F KetDBF=F FulRan=T
         wScrn=  0.000000 ICntrl=     600 IOpCl=  0 I1Cent=           0 NGrid=           0
         NMat0=    1 NMatS0=   6786 NMatT0=    0 NMatD0=    1 NMtDS0=    0 NMtDT0=    0
 Symmetry not used in FoFCou.
 Integral accuracy reduced to 1.0D-05 until final iterations.

 Cycle   1  Pass 0  IDiag  1:
 E= -532.636157130434    
 DIIS: error= 5.31D-02 at cycle   1 NSaved=   1.
 NSaved= 1 IEnMin= 1 EnMin= -532.636157130434     IErMin= 1 ErrMin= 5.31D-02
 ErrMax= 5.31D-02  0.00D+00 EMaxC= 1.00D-01 BMatC= 3.09D-01 BMatP= 3.09D-01
 IDIUse=3 WtCom= 4.69D-01 WtEn= 5.31D-01
 Coeff-Com:  0.100D+01
 Coeff-En:   0.100D+01
 Coeff:      0.100D+01
 Gap=     0.306 Goal=   None    Shift=    0.000
 GapD=    0.306 DampG=1.000 DampE=0.500 DampFc=0.5000 IDamp=-1.
 Damping current iteration by 5.00D-01
 RMSDP=8.35D-03 MaxDP=1.65D-01              OVMax= 1.78D-01

 Cycle   2  Pass 0  IDiag  1:
 E= -532.759758105178     Delta-E=       -0.123600974744 Rises=F Damp=T
 DIIS: error= 1.02D-02 at cycle   2 NSaved=   2.
 NSaved= 2 IEnMin= 2 EnMin= -532.759758105178     IErMin= 2 ErrMin= 1.02D-02
 ErrMax= 1.02D-02  0.00D+00 EMaxC= 1.00D-01 BMatC= 1.89D-02 BMatP= 3.09D-01
 IDIUse=3 WtCom= 8.98D-01 WtEn= 1.02D-01
 Coeff-Com:  0.332D-01 0.967D+00
 Coeff-En:   0.363D-01 0.964D+00
 Coeff:      0.335D-01 0.966D+00
 Gap=     0.364 Goal=   None    Shift=    0.000
 RMSDP=2.13D-03 MaxDP=3.50D-02 DE=-1.24D-01 OVMax= 1.10D-01

 Cycle   3  Pass 0  IDiag  1:
 E= -532.887522840121     Delta-E=       -0.127764734943 Rises=F Damp=F
 DIIS: error= 1.22D-02 at cycle   3 NSaved=   3.
 NSaved= 3 IEnMin= 3 EnMin= -532.887522840121     IErMin= 2 ErrMin= 1.02D-02
 ErrMax= 1.22D-02  0.00D+00 EMaxC= 1.00D-01 BMatC= 1.53D-02 BMatP= 1.89D-02
 IDIUse=3 WtCom= 8.78D-01 WtEn= 1.22D-01
 Coeff-Com: -0.239D-01 0.477D+00 0.547D+00
 Coeff-En:   0.000D+00 0.000D+00 0.100D+01
 Coeff:     -0.210D-01 0.419D+00 0.602D+00
 Gap=     0.338 Goal=   None    Shift=    0.000
 RMSDP=1.41D-03 MaxDP=3.66D-02 DE=-1.28D-01 OVMax= 5.67D-02

 Cycle   4  Pass 0  IDiag  1:
 E= -532.897340702991     Delta-E=       -0.009817862870 Rises=F Damp=F
 DIIS: error= 7.77D-03 at cycle   4 NSaved=   4.
 NSaved= 4 IEnMin= 4 EnMin= -532.897340702991     IErMin= 4 ErrMin= 7.77D-03
 ErrMax= 7.77D-03  0.00D+00 EMaxC= 1.00D-01 BMatC= 3.77D-03 BMatP= 1.53D-02
 IDIUse=3 WtCom= 9.22D-01 WtEn= 7.77D-02
 Coeff-Com: -0.677D-02 0.345D-01 0.338D+00 0.635D+00
 Coeff-En:   0.000D+00 0.000D+00 0.197D+00 0.803D+00
 Coeff:     -0.624D-02 0.318D-01 0.327D+00 0.648D+00
 Gap=     0.336 Goal=   None    Shift=    0.000
 RMSDP=5.32D-04 MaxDP=1.15D-02 DE=-9.82D-03 OVMax= 1.83D-02

 Cycle   5  Pass 0  IDiag  1:
 E= -532.900061279604     Delta-E=       -0.002720576613 Rises=F Damp=F
 DIIS: error= 1.09D-03 at cycle   5 NSaved=   5.
 NSaved= 5 IEnMin= 5 EnMin= -532.900061279604     IErMin= 5 ErrMin= 1.09D-03
 ErrMax= 1.09D-03  0.00D+00 EMaxC= 1.00D-01 BMatC= 1.61D-04 BMatP= 3.77D-03
 IDIUse=3 WtCom= 9.89D-01 WtEn= 1.09D-02
 Coeff-Com: -0.109D-02-0.728D-02 0.143D+00 0.334D+00 0.531D+00
 Coeff-En:   0.000D+00 0.000D+00 0.000D+00 0.000D+00 0.100D+01
 Coeff:     -0.108D-02-0.720D-02 0.142D+00 0.331D+00 0.536D+00
 Gap=     0.333 Goal=   None    Shift=    0.000
 RMSDP=1.06D-04 MaxDP=2.14D-03 DE=-2.72D-03 OVMax= 3.60D-03

 Cycle   6  Pass 0  IDiag  1:
 E= -532.900202486442     Delta-E=       -0.000141206838 Rises=F Damp=F
 DIIS: error= 2.90D-04 at cycle   6 NSaved=   6.
 NSaved= 6 IEnMin= 6 EnMin= -532.900202486442     IErMin= 6 ErrMin= 2.90D-04
 ErrMax= 2.90D-04  0.00D+00 EMaxC= 1.00D-01 BMatC= 4.22D-06 BMatP= 1.61D-04
 IDIUse=3 WtCom= 9.97D-01 WtEn= 2.90D-03
 Coeff-Com:  0.520D-03-0.369D-02 0.165D-01 0.311D-01 0.134D+00 0.822D+00
 Coeff-En:   0.000D+00 0.000D+00 0.000D+00 0.000D+00 0.000D+00 0.100D+01
 Coeff:      0.519D-03-0.368D-02 0.164D-01 0.310D-01 0.133D+00 0.822D+00
 Gap=     0.333 Goal=   None    Shift=    0.000
 RMSDP=2.66D-05 MaxDP=4.01D-04 DE=-1.41D-04 OVMax= 5.68D-04

 Cycle   7  Pass 0  IDiag  1:
 E= -532.900206449650     Delta-E=       -0.000003963208 Rises=F Damp=F
 DIIS: error= 9.35D-05 at cycle   7 NSaved=   7.
 NSaved= 7 IEnMin= 7 EnMin= -532.900206449650     IErMin= 7 ErrMin= 9.35D-05
 ErrMax= 9.35D-05  0.00D+00 EMaxC= 1.00D-01 BMatC= 5.54D-07 BMatP= 4.22D-06
 IDIUse=1 WtCom= 1.00D+00 WtEn= 0.00D+00
 Coeff-Com:  0.427D-03-0.619D-03-0.126D-01-0.358D-01-0.176D-01 0.284D+00
 Coeff-Com:  0.782D+00
 Coeff:      0.427D-03-0.619D-03-0.126D-01-0.358D-01-0.176D-01 0.284D+00
 Coeff:      0.782D+00
 Gap=     0.333 Goal=   None    Shift=    0.000
 RMSDP=1.27D-05 MaxDP=2.17D-04 DE=-3.96D-06 OVMax= 3.05D-04

 Cycle   8  Pass 0  IDiag  1:
 E= -532.900207082635     Delta-E=       -0.000000632986 Rises=F Damp=F
 DIIS: error= 2.54D-05 at cycle   8 NSaved=   8.
 NSaved= 8 IEnMin= 8 EnMin= -532.900207082635     IErMin= 8 ErrMin= 2.54D-05
 ErrMax= 2.54D-05  0.00D+00 EMaxC= 1.00D-01 BMatC= 6.18D-08 BMatP= 5.54D-07
 IDIUse=1 WtCom= 1.00D+00 WtEn= 0.00D+00
 Coeff-Com:  0.122D-03 0.785D-04-0.558D-02-0.157D-01-0.174D-01 0.214D-01
 Coeff-Com:  0.293D+00 0.724D+00
 Coeff:      0.122D-03 0.785D-04-0.558D-02-0.157D-01-0.174D-01 0.214D-01
 Coeff:      0.293D+00 0.724D+00
 Gap=     0.333 Goal=   None    Shift=    0.000
 RMSDP=3.57D-06 MaxDP=6.24D-05 DE=-6.33D-07 OVMax= 1.02D-04

 Initial convergence to 1.0D-05 achieved.  Increase integral accuracy.
 Cycle   9  Pass 1  IDiag  1:
 E= -532.900417099505     Delta-E=       -0.000210016869 Rises=F Damp=F
 DIIS: error= 1.36D-04 at cycle   1 NSaved=   1.
 NSaved= 1 IEnMin= 1 EnMin= -532.900417099505     IErMin= 1 ErrMin= 1.36D-04
 ErrMax= 1.36D-04  0.00D+00 EMaxC= 1.00D-01 BMatC= 1.80D-06 BMatP= 1.80D-06
 IDIUse=3 WtCom= 9.99D-01 WtEn= 1.36D-03
 Coeff-Com:  0.100D+01
 Coeff-En:   0.100D+01
 Coeff:      0.100D+01
 Gap=     0.333 Goal=   None    Shift=    0.000
 RMSDP=3.57D-06 MaxDP=6.24D-05 DE=-2.10D-04 OVMax= 1.96D-04

 Cycle  10  Pass 1  IDiag  1:
 E= -532.900418695632     Delta-E=       -0.000001596128 Rises=F Damp=F
 DIIS: error= 7.02D-05 at cycle   2 NSaved=   2.
 NSaved= 2 IEnMin= 2 EnMin= -532.900418695632     IErMin= 2 ErrMin= 7.02D-05
 ErrMax= 7.02D-05  0.00D+00 EMaxC= 1.00D-01 BMatC= 4.00D-07 BMatP= 1.80D-06
 IDIUse=1 WtCom= 1.00D+00 WtEn= 0.00D+00
 Coeff-Com:  0.251D+00 0.749D+00
 Coeff:      0.251D+00 0.749D+00
 Gap=     0.333 Goal=   None    Shift=    0.000
 RMSDP=7.42D-06 MaxDP=1.61D-04 DE=-1.60D-06 OVMax= 1.79D-04

 Cycle  11  Pass 1  IDiag  1:
 E= -532.900418972174     Delta-E=       -0.000000276542 Rises=F Damp=F
 DIIS: error= 3.26D-05 at cycle   3 NSaved=   3.
 NSaved= 3 IEnMin= 3 EnMin= -532.900418972174     IErMin= 3 ErrMin= 3.26D-05
 ErrMax= 3.26D-05  0.00D+00 EMaxC= 1.00D-01 BMatC= 1.51D-07 BMatP= 4.00D-07
 IDIUse=1 WtCom= 1.00D+00 WtEn= 0.00D+00
 Coeff-Com: -0.285D-01 0.367D+00 0.661D+00
 Coeff:     -0.285D-01 0.367D+00 0.661D+00
 Gap=     0.333 Goal=   None    Shift=    0.000
 RMSDP=3.57D-06 MaxDP=7.99D-05 DE=-2.77D-07 OVMax= 9.58D-05

 Cycle  12  Pass 1  IDiag  1:
 E= -532.900419093681     Delta-E=       -0.000000121507 Rises=F Damp=F
 DIIS: error= 1.00D-05 at cycle   4 NSaved=   4.
 NSaved= 4 IEnMin= 4 EnMin= -532.900419093681     IErMin= 4 ErrMin= 1.00D-05
 ErrMax= 1.00D-05  0.00D+00 EMaxC= 1.00D-01 BMatC= 1.33D-08 BMatP= 1.51D-07
 IDIUse=1 WtCom= 1.00D+00 WtEn= 0.00D+00
 Coeff-Com: -0.307D-01 0.153D+00 0.349D+00 0.528D+00
 Coeff:     -0.307D-01 0.153D+00 0.349D+00 0.528D+00
 Gap=     0.333 Goal=   None    Shift=    0.000
 RMSDP=8.75D-07 MaxDP=1.82D-05 DE=-1.22D-07 OVMax= 2.82D-05

 Cycle  13  Pass 1  IDiag  1:
 E= -532.900419105205     Delta-E=       -0.000000011524 Rises=F Damp=F
 DIIS: error= 2.35D-06 at cycle   5 NSaved=   5.
 NSaved= 5 IEnMin= 5 EnMin= -532.900419105205     IErMin= 5 ErrMin= 2.35D-06
 ErrMax= 2.35D-06  0.00D+00 EMaxC= 1.00D-01 BMatC= 3.02D-10 BMatP= 1.33D-08
 IDIUse=1 WtCom= 1.00D+00 WtEn= 0.00D+00
 Coeff-Com: -0.562D-02 0.923D-02 0.325D-01 0.126D+00 0.838D+00
 Coeff:     -0.562D-02 0.923D-02 0.325D-01 0.126D+00 0.838D+00
 Gap=     0.333 Goal=   None    Shift=    0.000
 RMSDP=2.98D-07 MaxDP=5.19D-06 DE=-1.15D-08 OVMax= 7.10D-06

 Cycle  14  Pass 1  IDiag  1:
 E= -532.900419105411     Delta-E=       -0.000000000206 Rises=F Damp=F
 DIIS: error= 1.59D-06 at cycle   6 NSaved=   6.
 NSaved= 6 IEnMin= 6 EnMin= -532.900419105411     IErMin= 6 ErrMin= 1.59D-06
 ErrMax= 1.59D-06  0.00D+00 EMaxC= 1.00D-01 BMatC= 1.89D-10 BMatP= 3.02D-10
 IDIUse=1 WtCom= 1.00D+00 WtEn= 0.00D+00
 Coeff-Com:  0.138D-02-0.165D-01-0.320D-01 0.184D-02 0.503D+00 0.542D+00
 Coeff:      0.138D-02-0.165D-01-0.320D-01 0.184D-02 0.503D+00 0.542D+00
 Gap=     0.333 Goal=   None    Shift=    0.000
 RMSDP=1.11D-07 MaxDP=3.20D-06 DE=-2.06D-10 OVMax= 5.69D-06

 Cycle  15  Pass 1  IDiag  1:
 E= -532.900419105558     Delta-E=       -0.000000000147 Rises=F Damp=F
 DIIS: error= 3.76D-07 at cycle   7 NSaved=   7.
 NSaved= 7 IEnMin= 7 EnMin= -532.900419105558     IErMin= 7 ErrMin= 3.76D-07
 ErrMax= 3.76D-07  0.00D+00 EMaxC= 1.00D-01 BMatC= 7.86D-12 BMatP= 1.89D-10
 IDIUse=1 WtCom= 1.00D+00 WtEn= 0.00D+00
 Coeff-Com:  0.865D-03-0.606D-02-0.135D-01-0.714D-02 0.856D-01 0.203D+00
 Coeff-Com:  0.737D+00
 Coeff:      0.865D-03-0.606D-02-0.135D-01-0.714D-02 0.856D-01 0.203D+00
 Coeff:      0.737D+00
 Gap=     0.333 Goal=   None    Shift=    0.000
 RMSDP=4.43D-08 MaxDP=9.78D-07 DE=-1.47D-10 OVMax= 1.03D-06

 Cycle  16  Pass 1  IDiag  1:
 E= -532.900419105568     Delta-E=       -0.000000000009 Rises=F Damp=F
 DIIS: error= 1.03D-07 at cycle   8 NSaved=   8.
 NSaved= 8 IEnMin= 8 EnMin= -532.900419105568     IErMin= 8 ErrMin= 1.03D-07
 ErrMax= 1.03D-07  0.00D+00 EMaxC= 1.00D-01 BMatC= 1.67D-12 BMatP= 7.86D-12
 IDIUse=1 WtCom= 1.00D+00 WtEn= 0.00D+00
 Coeff-Com:  0.199D-03-0.249D-03-0.154D-02-0.336D-02-0.478D-01 0.190D-01
 Coeff-Com:  0.376D+00 0.658D+00
 Coeff:      0.199D-03-0.249D-03-0.154D-02-0.336D-02-0.478D-01 0.190D-01
 Coeff:      0.376D+00 0.658D+00
 Gap=     0.333 Goal=   None    Shift=    0.000
 RMSDP=1.47D-08 MaxDP=3.21D-07 DE=-9.32D-12 OVMax= 4.22D-07

 Cycle  17  Pass 1  IDiag  1:
 E= -532.900419105576     Delta-E=       -0.000000000009 Rises=F Damp=F
 DIIS: error= 3.18D-08 at cycle   9 NSaved=   9.
 NSaved= 9 IEnMin= 9 EnMin= -532.900419105576     IErMin= 9 ErrMin= 3.18D-08
 ErrMax= 3.18D-08  0.00D+00 EMaxC= 1.00D-01 BMatC= 7.24D-14 BMatP= 1.67D-12
 IDIUse=1 WtCom= 1.00D+00 WtEn= 0.00D+00
 Coeff-Com: -0.372D-04 0.513D-03 0.955D-03 0.156D-03-0.189D-01-0.120D-01
 Coeff-Com: -0.133D-02 0.145D+00 0.886D+00
 Coeff:     -0.372D-04 0.513D-03 0.955D-03 0.156D-03-0.189D-01-0.120D-01
 Coeff:     -0.133D-02 0.145D+00 0.886D+00
 Gap=     0.333 Goal=   None    Shift=    0.000
 RMSDP=5.28D-09 MaxDP=9.75D-08 DE=-8.87D-12 OVMax= 2.29D-07

 SCF Done:  E(RM062X) =  -532.900419106     A.U. after   17 cycles
            NFock= 17  Conv=0.53D-08     -V/T= 2.0059
 KE= 5.297588579177D+02 PE=-2.403001384698D+03 EE= 7.548577181888D+02
 Leave Link  502 at Thu Mar 12 19:17:10 2020, MaxMem=    33554432 cpu:        56.1
 (Enter /usr/local/gaussian09d01/g09/l601.exe)
 Copying SCF densities to generalized density rwf, IOpCl= 0 IROHF=0.

 **********************************************************************

            Population analysis using the SCF density.

 **********************************************************************

 Orbital symmetries:
       Occupied  (A) (A) (A) (A) (A) (A) (A) (A) (A) (A) (A) (A)
                 (A) (A) (A) (A) (A) (A) (A) (A) (A) (A) (A) (A)
                 (A) (A) (A) (A) (A) (A) (A) (A) (A) (A) (A) (A)
                 (A) (A) (A) (A)
       Virtual   (A) (A) (A) (A) (A) (A) (A) (A) (A) (A) (A) (A)
                 (A) (A) (A) (A) (A) (A) (A) (A) (A) (A) (A) (A)
                 (A) (A) (A) (A) (A) (A) (A) (A) (A) (A) (A) (A)
                 (A) (A) (A) (A) (A) (A) (A) (A) (A) (A) (A) (A)
                 (A) (A) (A) (A) (A) (A) (A) (A) (A) (A) (A) (A)
                 (A) (A) (A) (A) (A) (A) (A) (A) (A) (A) (A) (A)
                 (A) (A) (A) (A)
 The electronic state is 1-A.
 Alpha  occ. eigenvalues --  -19.88226 -19.83995 -19.80465 -14.99697 -14.92882
 Alpha  occ. eigenvalues --  -10.89286 -10.86111 -10.77860 -10.75394 -10.63050
 Alpha  occ. eigenvalues --   -1.42621  -1.40198  -1.31184  -1.24348  -1.18172
 Alpha  occ. eigenvalues --   -1.06000  -0.96535  -0.92827  -0.89980  -0.86054
 Alpha  occ. eigenvalues --   -0.81669  -0.79109  -0.76612  -0.73715  -0.73262
 Alpha  occ. eigenvalues --   -0.72481  -0.71226  -0.69068  -0.66153  -0.64586
 Alpha  occ. eigenvalues --   -0.63461  -0.61730  -0.60605  -0.57065  -0.56845
 Alpha  occ. eigenvalues --   -0.55970  -0.55866  -0.54048  -0.51523  -0.49224
 Alpha virt. eigenvalues --   -0.15916  -0.12182  -0.08711  -0.06562  -0.02406
 Alpha virt. eigenvalues --   -0.00542   0.01032   0.01790   0.04747   0.05158
 Alpha virt. eigenvalues --    0.06713   0.07200   0.07896   0.10814   0.11170
 Alpha virt. eigenvalues --    0.11297   0.12318   0.13049   0.16219   0.18789
 Alpha virt. eigenvalues --    0.20794   0.24034   0.28099   0.38917   0.42082
 Alpha virt. eigenvalues --    0.43354   0.45883   0.46198   0.48120   0.48250
 Alpha virt. eigenvalues --    0.49893   0.51928   0.52049   0.55272   0.58223
 Alpha virt. eigenvalues --    0.58484   0.59236   0.62730   0.64287   0.66503
 Alpha virt. eigenvalues --    0.68268   0.68793   0.71209   0.74914   0.75387
 Alpha virt. eigenvalues --    0.77105   0.78816   0.80897   0.83743   0.84290
 Alpha virt. eigenvalues --    0.86185   0.87439   0.87888   0.88236   0.91325
 Alpha virt. eigenvalues --    0.92230   0.92751   0.94596   0.95201   0.96673
 Alpha virt. eigenvalues --    1.02339   1.04083   1.08977   1.10986   1.12313
 Alpha virt. eigenvalues --    1.14905   1.19268   1.28590   1.30951   1.33886
 Alpha virt. eigenvalues --    1.41901   1.54313   1.63562   1.75611   1.76666
 Alpha virt. eigenvalues --    1.86727
          Condensed to atoms (all electrons):
               1          2          3          4          5          6
     1  C    5.189225   0.375481   0.371712   0.000000   0.370221   0.370783
     2  H    0.375481   0.469181  -0.017929   0.000000  -0.019817  -0.020270
     3  H    0.371712  -0.017929   0.520834   0.000000  -0.029535  -0.030139
     4  H    0.000000   0.000000   0.000000   0.291066   0.000000   0.000000
     5  H    0.370221  -0.019817  -0.029535   0.000000   0.538089  -0.032252
     6  H    0.370783  -0.020270  -0.030139   0.000000  -0.032252   0.545607
     7  C    0.000000   0.000000  -0.000001  -0.005857   0.000000   0.000000
     8  C   -0.000004   0.000001   0.000083   0.000138  -0.000011  -0.000007
     9  C    0.000271   0.000037   0.001482   0.000050  -0.000154  -0.000131
    10  N    0.000000   0.000000  -0.000001   0.000025   0.000000   0.000000
    11  O   -0.001310   0.000015   0.003280   0.000353   0.000043   0.000016
    12  O   -0.005248   0.000175  -0.001620   0.000000  -0.000763  -0.000633
    13  C    0.000000   0.000000   0.000000  -0.015633   0.000000   0.000000
    14  H    0.000000   0.000000   0.000000   0.000008   0.000000   0.000000
    15  H    0.000000   0.000000   0.000000   0.003641   0.000000   0.000000
    16  H    0.000001   0.000000  -0.000002   0.000003   0.000000   0.000000
    17  H    0.000000   0.000000   0.000000  -0.000030   0.000000   0.000000
    18  H   -0.000001   0.000000   0.000000   0.000000   0.000000   0.000000
    19  H    0.026972  -0.000940   0.002071   0.000000   0.005191   0.004714
    20  N    0.000000   0.000000   0.000000   0.005749   0.000000   0.000000
    21  O    0.000000   0.000000   0.000000   0.257038   0.000000   0.000000
    22  H    0.000000   0.000000   0.000000  -0.000001   0.000000   0.000000
    23  H    0.000000   0.000000   0.000000   0.000011   0.000000   0.000000
               7          8          9         10         11         12
     1  C    0.000000  -0.000004   0.000271   0.000000  -0.001310  -0.005248
     2  H    0.000000   0.000001   0.000037   0.000000   0.000015   0.000175
     3  H   -0.000001   0.000083   0.001482  -0.000001   0.003280  -0.001620
     4  H   -0.005857   0.000138   0.000050   0.000025   0.000353   0.000000
     5  H    0.000000  -0.000011  -0.000154   0.000000   0.000043  -0.000763
     6  H    0.000000  -0.000007  -0.000131   0.000000   0.000016  -0.000633
     7  C    5.425541   0.217702  -0.048034  -0.074703   0.007910   0.005361
     8  C    0.217702   5.569518   0.151503   0.193109  -0.124288  -0.148235
     9  C   -0.048034   0.151503   4.753867  -0.049281   0.495301   0.195375
    10  N   -0.074703   0.193109  -0.049281   7.095587   0.002198   0.001789
    11  O    0.007910  -0.124288   0.495301   0.002198   8.124208  -0.108485
    12  O    0.005361  -0.148235   0.195375   0.001789  -0.108485   8.417680
    13  C    0.266976  -0.016323  -0.007674  -0.005286   0.010923  -0.000522
    14  H    0.376523  -0.027690   0.005602  -0.001458   0.000416  -0.000026
    15  H    0.368005  -0.027499  -0.001996   0.003802   0.004701   0.000131
    16  H   -0.043569   0.385590  -0.026904  -0.035873   0.001068   0.000892
    17  H   -0.009143  -0.010867  -0.000651   0.094206   0.000200  -0.000068
    18  H    0.004858  -0.034195  -0.007475   0.320722   0.000225   0.013204
    19  H   -0.000158   0.005421  -0.018764  -0.000118  -0.000645   0.237017
    20  N   -0.099933   0.003457   0.000208  -0.075005  -0.003478   0.000050
    21  O   -0.062495   0.002693  -0.000507  -0.000160  -0.001578  -0.000001
    22  H   -0.000880  -0.029123   0.004137   0.322102  -0.000080  -0.000003
    23  H    0.002626  -0.000121  -0.000078   0.001259   0.000011   0.000002
              13         14         15         16         17         18
     1  C    0.000000   0.000000   0.000000   0.000001   0.000000  -0.000001
     2  H    0.000000   0.000000   0.000000   0.000000   0.000000   0.000000
     3  H    0.000000   0.000000   0.000000  -0.000002   0.000000   0.000000
     4  H   -0.015633   0.000008   0.003641   0.000003  -0.000030   0.000000
     5  H    0.000000   0.000000   0.000000   0.000000   0.000000   0.000000
     6  H    0.000000   0.000000   0.000000   0.000000   0.000000   0.000000
     7  C    0.266976   0.376523   0.368005  -0.043569  -0.009143   0.004858
     8  C   -0.016323  -0.027690  -0.027499   0.385590  -0.010867  -0.034195
     9  C   -0.007674   0.005602  -0.001996  -0.026904  -0.000651  -0.007475
    10  N   -0.005286  -0.001458   0.003802  -0.035873   0.094206   0.320722
    11  O    0.010923   0.000416   0.004701   0.001068   0.000200   0.000225
    12  O   -0.000522  -0.000026   0.000131   0.000892  -0.000068   0.013204
    13  C    4.649060  -0.035745  -0.032354   0.004222  -0.022528   0.000182
    14  H   -0.035745   0.442315  -0.016150  -0.003171  -0.000322  -0.000055
    15  H   -0.032354  -0.016150   0.465508  -0.000701   0.000356  -0.000101
    16  H    0.004222  -0.003171  -0.000701   0.460950   0.001001   0.000995
    17  H   -0.022528  -0.000322   0.000356   0.001001   0.258825  -0.000459
    18  H    0.000182  -0.000055  -0.000101   0.000995  -0.000459   0.337489
    19  H   -0.000011   0.000002  -0.000002  -0.000247  -0.000021  -0.000261
    20  N    0.287898  -0.001699   0.004407  -0.000312   0.242446   0.000285
    21  O    0.324510   0.001053  -0.002887  -0.000070   0.001116   0.000002
    22  H   -0.000271   0.001619  -0.000072  -0.003777  -0.001562  -0.020826
    23  H   -0.019079  -0.000094  -0.000056   0.000007  -0.000503  -0.000008
              19         20         21         22         23
     1  C    0.026972   0.000000   0.000000   0.000000   0.000000
     2  H   -0.000940   0.000000   0.000000   0.000000   0.000000
     3  H    0.002071   0.000000   0.000000   0.000000   0.000000
     4  H    0.000000   0.005749   0.257038  -0.000001   0.000011
     5  H    0.005191   0.000000   0.000000   0.000000   0.000000
     6  H    0.004714   0.000000   0.000000   0.000000   0.000000
     7  C   -0.000158  -0.099933  -0.062495  -0.000880   0.002626
     8  C    0.005421   0.003457   0.002693  -0.029123  -0.000121
     9  C   -0.018764   0.000208  -0.000507   0.004137  -0.000078
    10  N   -0.000118  -0.075005  -0.000160   0.322102   0.001259
    11  O   -0.000645  -0.003478  -0.001578  -0.000080   0.000011
    12  O    0.237017   0.000050  -0.000001  -0.000003   0.000002
    13  C   -0.000011   0.287898   0.324510  -0.000271  -0.019079
    14  H    0.000002  -0.001699   0.001053   0.001619  -0.000094
    15  H   -0.000002   0.004407  -0.002887  -0.000072  -0.000056
    16  H   -0.000247  -0.000312  -0.000070  -0.003777   0.000007
    17  H   -0.000021   0.242446   0.001116  -0.001562  -0.000503
    18  H   -0.000261   0.000285   0.000002  -0.020826  -0.000008
    19  H    0.275043   0.000011   0.000000   0.000016  -0.000001
    20  N    0.000011   7.173261  -0.111266   0.000932   0.274723
    21  O    0.000000  -0.111266   8.142376   0.000002  -0.000677
    22  H    0.000016   0.000932   0.000002   0.369925  -0.000017
    23  H   -0.000001   0.274723  -0.000677  -0.000017   0.301522
 Mulliken charges:
               1
     1  C   -0.698104
     2  H    0.214066
     3  H    0.179764
     4  H    0.463439
     5  H    0.168987
     6  H    0.162312
     7  C   -0.330729
     8  C   -0.110850
     9  C    0.553814
    10  N   -0.792915
    11  O   -0.411005
    12  O   -0.606070
    13  C    0.611655
    14  H    0.258871
    15  H    0.231267
    16  H    0.259896
    17  H    0.448003
    18  H    0.385419
    19  H    0.464710
    20  N   -0.701735
    21  O   -0.549147
    22  H    0.357880
    23  H    0.440473
 Sum of Mulliken charges =   1.00000
 Mulliken charges with hydrogens summed into heavy atoms:
               1
     1  C    0.027025
     7  C    0.159409
     8  C    0.149045
     9  C    0.553814
    10  N   -0.049616
    11  O   -0.411005
    12  O   -0.141360
    13  C    0.611655
    20  N    0.186741
    21  O   -0.085709
 Electronic spatial extent (au):  <R**2>=           1997.7275
 Charge=              1.0000 electrons
 Dipole moment (field-independent basis, Debye):
    X=              4.7547    Y=              1.8232    Z=              0.1171  Tot=              5.0936
 Quadrupole moment (field-independent basis, Debye-Ang):
   XX=            -33.5869   YY=            -48.0891   ZZ=            -46.7132
   XY=             -1.2669   XZ=             -2.7485   YZ=              0.3434
 Traceless Quadrupole moment (field-independent basis, Debye-Ang):
   XX=              9.2095   YY=             -5.2927   ZZ=             -3.9168
   XY=             -1.2669   XZ=             -2.7485   YZ=              0.3434
 Octapole moment (field-independent basis, Debye-Ang**2):
  XXX=            -21.4406  YYY=             16.1200  ZZZ=             15.8585  XYY=             23.9081
  XXY=            -18.1606  XXZ=              0.6474  XZZ=             26.4558  YZZ=             -8.5372
  YYZ=             -4.5107  XYZ=              4.9258
 Hexadecapole moment (field-independent basis, Debye-Ang**3):
 XXXX=          -1437.6371 YYYY=           -430.7627 ZZZZ=           -187.8190 XXXY=             24.1568
 XXXZ=            -28.5041 YYYX=            -15.2490 YYYZ=             37.9500 ZZZX=             37.1626
 ZZZY=            -12.8483 XXYY=           -330.2654 XXZZ=           -283.7535 YYZZ=           -106.1226
 XXYZ=              6.5287 YYXZ=            -23.1653 ZZXY=            -36.3150
 N-N= 5.854843894860D+02 E-N=-2.403001385712D+03  KE= 5.297588579177D+02
 No NMR shielding tensors so no spin-rotation constants.
 Leave Link  601 at Thu Mar 12 19:17:10 2020, MaxMem=    33554432 cpu:         0.1
 (Enter /usr/local/gaussian09d01/g09/l9999.exe)
 1\1\GINC-KARURA\SP\RM062X\6-31G\C5H13N2O3(1+)\RTAKE\12-Mar-2020\0\\#p 
 M062X/6-31G\\chk calc\\1,1\C,0,3.824482709,-1.14219544,1.17225369\H,0,
 4.799113079,-1.62961423,1.173808707\H,0,3.053614027,-1.916312598,1.160
 804944\H,0,-2.540416453,-2.844981592,-1.014302773\H,0,3.75960642,-0.53
 291794,2.07824618\H,0,3.765323683,-0.52154146,0.273951194\C,0,-2.40154
 2122,-0.705499021,0.492562549\C,0,-1.33365594,0.193207044,1.141270536\
 C,0,0.021967089,-0.47033751,0.950186539\N,0,-1.303304814,1.529148773,0
 .515945207\O,0,0.155929117,-1.611462803,0.51692019\O,0,1.024922388,0.3
 53392554,1.298656\C,0,-2.121889445,-0.918337302,-0.967112723\H,0,-3.39
 229932,-0.247402335,0.596496855\H,0,-2.419176945,-1.669900059,1.004436
 439\H,0,-1.526304416,0.239474424,2.221387894\H,0,-1.503902114,0.960750
 702,-1.170400229\H,0,-0.410560182,1.997532273,0.666150752\H,0,1.924402
 159,-0.039925506,1.230818645\N,0,-1.700457396,0.069239192,-1.694919761
 \O,0,-2.336854815,-2.071648312,-1.575178364\H,0,-2.071900591,2.1285565
 43,0.807834339\H,0,-1.477199002,-0.079260752,-2.883297391\\Version=ES6
 4L-G09RevD.01\State=1-A\HF=-532.9004191\RMSD=5.282e-09\Dipole=-1.84979
 ,0.649713,-0.414905\Quadrupole=6.2799937,-3.4662549,-2.8137387,1.88440
 21,2.6995698,0.16509\PG=C01 [X(C5H13N2O3)]\\@


 LIFE IS A CONTINUAL STRUGGLE AGAINST THE TENDENCY TO PRODUCE ENTROPY.
 Job cpu time:       0 days  0 hours  0 minutes 57.5 seconds.
 File lengths (MBytes):  RWF=      7 Int=      0 D2E=      0 Chk=      2 Scr=      1
 Normal termination of Gaussian 09 at Thu Mar 12 19:17:10 2020.
