 Entering Gaussian System, Link 0=g09
 Input=./n20_h23_19.gjf
 Output=./n20_h23_19.log
 Initial command:
 /usr/local/gaussian09d01/g09/l1.exe "/scr/Gau-21006.inp" -scrdir="/scr/"
 Entering Link 1 = /usr/local/gaussian09d01/g09/l1.exe PID=     21007.
  
 Copyright (c) 1988,1990,1992,1993,1995,1998,2003,2009,2013,
            Gaussian, Inc.  All Rights Reserved.
  
 This is part of the Gaussian(R) 09 program.  It is based on
 the Gaussian(R) 03 system (copyright 2003, Gaussian, Inc.),
 the Gaussian(R) 98 system (copyright 1998, Gaussian, Inc.),
 the Gaussian(R) 94 system (copyright 1995, Gaussian, Inc.),
 the Gaussian 92(TM) system (copyright 1992, Gaussian, Inc.),
 the Gaussian 90(TM) system (copyright 1990, Gaussian, Inc.),
 the Gaussian 88(TM) system (copyright 1988, Gaussian, Inc.),
 the Gaussian 86(TM) system (copyright 1986, Carnegie Mellon
 University), and the Gaussian 82(TM) system (copyright 1983,
 Carnegie Mellon University). Gaussian is a federally registered
 trademark of Gaussian, Inc.
  
 This software contains proprietary and confidential information,
 including trade secrets, belonging to Gaussian, Inc.
  
 This software is provided under written license and may be
 used, copied, transmitted, or stored only in accord with that
 written license.
  
 The following legend is applicable only to US Government
 contracts under FAR:
  
                    RESTRICTED RIGHTS LEGEND
  
 Use, reproduction and disclosure by the US Government is
 subject to restrictions as set forth in subparagraphs (a)
 and (c) of the Commercial Computer Software - Restricted
 Rights clause in FAR 52.227-19.
  
 Gaussian, Inc.
 340 Quinnipiac St., Bldg. 40, Wallingford CT 06492
  
  
 ---------------------------------------------------------------
 Warning -- This program may not be used in any manner that
 competes with the business of Gaussian, Inc. or will provide
 assistance to any competitor of Gaussian, Inc.  The licensee
 of this program is prohibited from giving any competitor of
 Gaussian, Inc. access to this program.  By using this program,
 the user acknowledges that Gaussian, Inc. is engaged in the
 business of creating and licensing software in the field of
 computational chemistry and represents and warrants to the
 licensee that it is not a competitor of Gaussian, Inc. and that
 it will not use this program in any manner prohibited above.
 ---------------------------------------------------------------
  

 Cite this work as:
 Gaussian 09, Revision D.01,
 M. J. Frisch, G. W. Trucks, H. B. Schlegel, G. E. Scuseria, 
 M. A. Robb, J. R. Cheeseman, G. Scalmani, V. Barone, B. Mennucci, 
 G. A. Petersson, H. Nakatsuji, M. Caricato, X. Li, H. P. Hratchian, 
 A. F. Izmaylov, J. Bloino, G. Zheng, J. L. Sonnenberg, M. Hada, 
 M. Ehara, K. Toyota, R. Fukuda, J. Hasegawa, M. Ishida, T. Nakajima, 
 Y. Honda, O. Kitao, H. Nakai, T. Vreven, J. A. Montgomery, Jr., 
 J. E. Peralta, F. Ogliaro, M. Bearpark, J. J. Heyd, E. Brothers, 
 K. N. Kudin, V. N. Staroverov, T. Keith, R. Kobayashi, J. Normand, 
 K. Raghavachari, A. Rendell, J. C. Burant, S. S. Iyengar, J. Tomasi, 
 M. Cossi, N. Rega, J. M. Millam, M. Klene, J. E. Knox, J. B. Cross, 
 V. Bakken, C. Adamo, J. Jaramillo, R. Gomperts, R. E. Stratmann, 
 O. Yazyev, A. J. Austin, R. Cammi, C. Pomelli, J. W. Ochterski, 
 R. L. Martin, K. Morokuma, V. G. Zakrzewski, G. A. Voth, 
 P. Salvador, J. J. Dannenberg, S. Dapprich, A. D. Daniels, 
 O. Farkas, J. B. Foresman, J. V. Ortiz, J. Cioslowski, 
 and D. J. Fox, Gaussian, Inc., Wallingford CT, 2013.
 
 ******************************************
 Gaussian 09:  ES64L-G09RevD.01 24-Apr-2013
                12-Mar-2020 
 ******************************************
 --------------
 #p M062X/6-31G
 --------------
 1/38=1/1;
 2/12=2,17=6,18=5,40=1/2;
 3/5=1,6=6,11=2,16=1,25=1,30=1,74=-55/1,2,3;
 4//1;
 5/5=2,38=5/2;
 6/7=2,8=2,9=2,10=2,28=1/1;
 99/5=1,9=1/99;
 Leave Link    1 at Thu Mar 12 19:12:05 2020, MaxMem=           0 cpu:         0.0
 (Enter /usr/local/gaussian09d01/g09/l101.exe)
 --------
 chk calc
 --------
 Symbolic Z-matrix:
 Charge =  1 Multiplicity = 1
 C                     3.82448  -1.1422    1.17225 
 H                     4.79911  -1.62961   1.17381 
 H                     3.05361  -1.91631   1.1608 
 H                    -2.54042  -2.84498  -1.0143 
 H                     3.75961  -0.53292   2.07825 
 H                     3.76532  -0.52154   0.27395 
 C                    -2.40154  -0.7055    0.49256 
 C                    -1.33366   0.19321   1.14127 
 C                     0.02197  -0.47034   0.95019 
 N                    -1.3033    1.52915   0.51595 
 O                     0.15593  -1.61146   0.51692 
 O                     1.02492   0.35339   1.29866 
 C                    -2.12189  -0.91834  -0.96711 
 H                    -3.3923   -0.2474    0.5965 
 H                    -2.41918  -1.6699    1.00444 
 H                    -1.5263    0.23947   2.22139 
 H                    -1.5039    0.96075  -1.1704 
 H                    -0.41056   1.99753   0.66615 
 H                     1.9244   -0.03993   1.23082 
 N                    -1.70046   0.06924  -1.69492 
 O                    -2.33685  -2.07165  -1.57518 
 H                    -2.0719    2.12856   0.80783 
 H                    -1.34696  -0.16589  -3.57652 
 
 NAtoms=     23 NQM=       23 NQMF=       0 NMMI=      0 NMMIF=      0
                NMic=       0 NMicF=      0.
                    Isotopes and Nuclear Properties:
 (Nuclear quadrupole moments (NQMom) in fm**2, nuclear magnetic moments (NMagM)
  in nuclear magnetons)

  Atom         1           2           3           4           5           6           7           8           9          10
 IAtWgt=          12           1           1           1           1           1          12          12          12          14
 AtmWgt=  12.0000000   1.0078250   1.0078250   1.0078250   1.0078250   1.0078250  12.0000000  12.0000000  12.0000000  14.0030740
 NucSpn=           0           1           1           1           1           1           0           0           0           2
 AtZEff=   0.0000000   0.0000000   0.0000000   0.0000000   0.0000000   0.0000000   0.0000000   0.0000000   0.0000000   0.0000000
 NQMom=    0.0000000   0.0000000   0.0000000   0.0000000   0.0000000   0.0000000   0.0000000   0.0000000   0.0000000   2.0440000
 NMagM=    0.0000000   2.7928460   2.7928460   2.7928460   2.7928460   2.7928460   0.0000000   0.0000000   0.0000000   0.4037610
 AtZNuc=   6.0000000   1.0000000   1.0000000   1.0000000   1.0000000   1.0000000   6.0000000   6.0000000   6.0000000   7.0000000

  Atom        11          12          13          14          15          16          17          18          19          20
 IAtWgt=          16          16          12           1           1           1           1           1           1          14
 AtmWgt=  15.9949146  15.9949146  12.0000000   1.0078250   1.0078250   1.0078250   1.0078250   1.0078250   1.0078250  14.0030740
 NucSpn=           0           0           0           1           1           1           1           1           1           2
 AtZEff=   0.0000000   0.0000000   0.0000000   0.0000000   0.0000000   0.0000000   0.0000000   0.0000000   0.0000000   0.0000000
 NQMom=    0.0000000   0.0000000   0.0000000   0.0000000   0.0000000   0.0000000   0.0000000   0.0000000   0.0000000   2.0440000
 NMagM=    0.0000000   0.0000000   0.0000000   2.7928460   2.7928460   2.7928460   2.7928460   2.7928460   2.7928460   0.4037610
 AtZNuc=   8.0000000   8.0000000   6.0000000   1.0000000   1.0000000   1.0000000   1.0000000   1.0000000   1.0000000   7.0000000

  Atom        21          22          23
 IAtWgt=          16           1           1
 AtmWgt=  15.9949146   1.0078250   1.0078250
 NucSpn=           0           1           1
 AtZEff=   0.0000000   0.0000000   0.0000000
 NQMom=    0.0000000   0.0000000   0.0000000
 NMagM=    0.0000000   2.7928460   2.7928460
 AtZNuc=   8.0000000   1.0000000   1.0000000
 Leave Link  101 at Thu Mar 12 19:12:05 2020, MaxMem=    33554432 cpu:         0.0
 (Enter /usr/local/gaussian09d01/g09/l202.exe)
                          Input orientation:                          
 ---------------------------------------------------------------------
 Center     Atomic      Atomic             Coordinates (Angstroms)
 Number     Number       Type             X           Y           Z
 ---------------------------------------------------------------------
      1          6           0        3.824483   -1.142195    1.172254
      2          1           0        4.799113   -1.629614    1.173809
      3          1           0        3.053614   -1.916313    1.160805
      4          1           0       -2.540416   -2.844982   -1.014303
      5          1           0        3.759606   -0.532918    2.078246
      6          1           0        3.765324   -0.521541    0.273951
      7          6           0       -2.401542   -0.705499    0.492563
      8          6           0       -1.333656    0.193207    1.141271
      9          6           0        0.021967   -0.470338    0.950187
     10          7           0       -1.303305    1.529149    0.515945
     11          8           0        0.155929   -1.611463    0.516920
     12          8           0        1.024922    0.353393    1.298656
     13          6           0       -2.121889   -0.918337   -0.967113
     14          1           0       -3.392299   -0.247402    0.596497
     15          1           0       -2.419177   -1.669900    1.004436
     16          1           0       -1.526304    0.239474    2.221388
     17          1           0       -1.503902    0.960751   -1.170400
     18          1           0       -0.410560    1.997532    0.666151
     19          1           0        1.924402   -0.039926    1.230819
     20          7           0       -1.700457    0.069239   -1.694920
     21          8           0       -2.336855   -2.071648   -1.575178
     22          1           0       -2.071901    2.128557    0.807834
     23          1           0       -1.346965   -0.165886   -3.576518
 ---------------------------------------------------------------------
                    Distance matrix (angstroms):
                    1          2          3          4          5
     1  C    0.000000
     2  H    1.089717   0.000000
     3  H    1.092532   1.768935   0.000000
     4  H    6.942078   7.754589   6.073442   0.000000
     5  H    1.093732   1.761058   1.803858   7.389167   0.000000
     6  H    1.093462   1.762467   1.799563   6.842538   1.804340
     7  C    6.278222   7.291606   5.627730   2.620556   6.364270
     8  C    5.328288   6.398015   4.868120   3.915783   5.229388
     9  C    3.867794   4.920879   3.365425   4.007987   3.904662
    10  N    5.819023   6.902903   5.591940   4.796365   5.685594
    11  O    3.756056   4.689455   2.983974   3.337138   4.072774
    12  O    3.176523   4.265257   3.047319   5.318930   2.978557
    13  C    6.323476   7.279405   5.684173   1.972143   6.634362
    14  H    7.294799   8.327247   6.682328   3.172979   7.309368
    15  H    6.268167   7.220389   5.480567   2.338979   6.373630
    16  H    5.624999   6.678459   5.171838   4.583883   5.343962
    17  H    6.188869   7.206477   5.872220   3.947446   6.363118
    18  H    5.296189   6.368250   5.250083   5.550689   5.078138
    19  H    2.197438   3.285472   2.191084   5.730926   2.080661
    20  N    6.341389   7.304801   5.890567   3.108288   6.664208
    21  O    6.809871   7.659919   6.047056   0.976762   7.272004
    22  H    6.752626   7.840192   6.538842   5.317497   6.534820
    23  H    7.088574   7.904579   6.698605   3.894461   7.628115
                    6          7          8          9         10
     6  H    0.000000
     7  C    6.173481   0.000000
     8  C    5.221370   1.539115   0.000000
     9  C    3.804292   2.477522   1.521354   0.000000
    10  N    5.473106   2.490045   1.475362   2.437797   0.000000
    11  O    3.778186   2.713305   2.421882   1.227938   3.463063
    12  O    3.053740   3.675826   2.369245   1.343831   2.723175
    13  C    6.029674   1.501385   2.510403   2.910818   2.976530
    14  H    7.170129   1.096474   2.174610   3.439769   2.743450
    15  H    6.332486   1.091969   2.160613   2.720492   3.423114
    16  H    5.689726   2.155888   1.098138   2.125307   2.149773
    17  H    5.661103   2.519443   2.441706   2.978788   1.790831
    18  H    4.892602   3.361625   2.081690   2.521535   1.019283
    19  H    2.129916   4.438671   3.267616   1.970601   3.659389
    20  N    5.839541   2.424215   2.862497   3.202261   2.678990
    21  O    6.561912   2.479133   3.676285   3.808636   4.290310
    22  H    6.432825   2.870528   2.098038   3.340478   1.017462
    23  H    6.410000   4.238010   4.731453   4.738957   4.429819
                   11         12         13         14         15
    11  O    0.000000
    12  O    2.286245   0.000000
    13  C    2.805572   4.080861   0.000000
    14  H    3.802225   4.512852   2.123434   0.000000
    15  H    2.621499   4.005259   2.130782   1.771124   0.000000
    16  H    3.026729   2.715358   3.444094   2.521757   2.433907
    17  H    3.495479   3.586095   1.988519   2.854401   3.533832
    18  H    3.656231   2.272415   3.754796   3.733008   4.195121
    19  H    2.471210   0.984055   4.687748   5.358426   4.644862
    20  N    3.341132   4.058317   1.297157   2.865865   3.290545
    21  O    3.286734   5.043936   1.321393   3.026220   2.612009
    22  H    4.362981   3.603113   3.526542   2.726407   3.819362
    23  H    4.593976   5.446358   2.824126   4.648020   4.939316
                   16         17         18         19         20
    16  H    0.000000
    17  H    3.467704   0.000000
    18  H    2.598926   2.375549   0.000000
    19  H    3.600926   4.303542   3.149942   0.000000
    20  N    3.923872   1.052876   3.310106   4.659557   0.000000
    21  O    4.517986   3.170662   5.029155   5.491796   2.236680
    22  H    2.421661   2.366391   1.672511   4.566362   3.262290
    23  H    5.814825   2.661455   4.853603   5.816201   1.928899
                   21         22         23
    21  O    0.000000
    22  H    4.836390   0.000000
    23  H    2.935502   5.001254   0.000000
 Stoichiometry    C5H13N2O3(1+)
 Framework group  C1[X(C5H13N2O3)]
 Deg. of freedom    63
 Full point group                 C1      NOp   1
 Largest Abelian subgroup         C1      NOp   1
 Largest concise Abelian subgroup C1      NOp   1
                         Standard orientation:                         
 ---------------------------------------------------------------------
 Center     Atomic      Atomic             Coordinates (Angstroms)
 Number     Number       Type             X           Y           Z
 ---------------------------------------------------------------------
      1          6           0       -4.363940   -0.970496    0.309391
      2          1           0       -5.264315   -1.580926    0.374072
      3          1           0       -3.650766   -1.478918   -0.343692
      4          1           0        2.346724   -2.196677   -0.977437
      5          1           0       -4.653519    0.000862   -0.101531
      6          1           0       -3.959887   -0.867039    1.320181
      7          6           0        1.640415    0.326882   -0.986989
      8          6           0        0.406890    1.190887   -0.669519
      9          6           0       -0.770563    0.260223   -0.420546
     10          7           0        0.624488    2.017234    0.533184
     11          8           0       -0.729122   -0.947787   -0.636942
     12          8           0       -1.828122    0.927721    0.071285
     13          6           0        1.947446   -0.619584    0.137329
     14          1           0        2.514724    0.966868   -1.155086
     15          1           0        1.455974   -0.241143   -1.901168
     16          1           0        0.166244    1.793764   -1.555259
     17          1           0        1.461180    0.755153    1.489309
     18          1           0       -0.255564    2.308441    0.957031
     19          1           0       -2.632098    0.378780    0.214987
     20          7           0        1.843311   -0.218203    1.366420
     21          8           0        2.378251   -1.852468   -0.063879
     22          1           0        1.221533    2.823880    0.365591
     23          1           0        2.245638   -1.403467    2.834049
 ---------------------------------------------------------------------
 Rotational constants (GHZ):      1.7730796      0.7129843      0.6047273
 Leave Link  202 at Thu Mar 12 19:12:05 2020, MaxMem=    33554432 cpu:         0.0
 (Enter /usr/local/gaussian09d01/g09/l301.exe)
 Standard basis: 6-31G (6D, 7F)
 Ernie: Thresh=  0.10000D-02 Tol=  0.10000D-05 Strict=F.
 There are   116 symmetry adapted cartesian basis functions of A   symmetry.
 There are   116 symmetry adapted basis functions of A   symmetry.
   116 basis functions,   272 primitive gaussians,   116 cartesian basis functions
    40 alpha electrons       40 beta electrons
       nuclear repulsion energy       582.8941755575 Hartrees.
 IExCor= 4336 DFT=T Ex+Corr=M062X ExCW=0 ScaHFX=  0.540000
 ScaDFX=  1.000000  1.000000  1.000000  1.000000 ScalE2=  1.000000  1.000000
 IRadAn=      0 IRanWt=     -1 IRanGd=            0 ICorTp=0 IEmpDi=  4
 NAtoms=   23 NActive=   23 NUniq=   23 SFac= 1.00D+00 NAtFMM=   60 NAOKFM=F Big=F
 Integral buffers will be    131072 words long.
 Raffenetti 2 integral format.
 Two-electron integral symmetry is turned on.
 Leave Link  301 at Thu Mar 12 19:12:05 2020, MaxMem=    33554432 cpu:         0.0
 (Enter /usr/local/gaussian09d01/g09/l302.exe)
 NPDir=0 NMtPBC=     1 NCelOv=     1 NCel=       1 NClECP=     1 NCelD=      1
         NCelK=      1 NCelE2=     1 NClLst=     1 CellRange=     0.0.
 One-electron integrals computed using PRISM.
 NBasis=   116 RedAO= T EigKep=  3.63D-03  NBF=   116
 NBsUse=   116 1.00D-06 EigRej= -1.00D+00 NBFU=   116
 Precomputing XC quadrature grid using
 IXCGrd= 4 IRadAn=           0 IRanWt=          -1 IRanGd=           0 AccXCQ= 0.00D+00.
 Generated NRdTot=       0 NPtTot=           0 NUsed=           0 NTot=          32
 NSgBfM=   115   115   115   115   115 MxSgAt=    23 MxSgA2=    23.
 Leave Link  302 at Thu Mar 12 19:12:06 2020, MaxMem=    33554432 cpu:         0.3
 (Enter /usr/local/gaussian09d01/g09/l303.exe)
 DipDrv:  MaxL=1.
 Leave Link  303 at Thu Mar 12 19:12:06 2020, MaxMem=    33554432 cpu:         0.0
 (Enter /usr/local/gaussian09d01/g09/l401.exe)
 ExpMin= 1.61D-01 ExpMax= 5.48D+03 ExpMxC= 8.25D+02 IAcc=1 IRadAn=         1 AccDes= 0.00D+00
 Harris functional with IExCor= 1009 and IRadAn=       1 diagonalized for initial guess.
 HarFok:  IExCor= 1009 AccDes= 0.00D+00 IRadAn=         1 IDoV= 1 UseB2=F ITyADJ=14
 ICtDFT=  3500011 ScaDFX=  1.000000  1.000000  1.000000  1.000000
 FoFCou: FMM=F IPFlag=           0 FMFlag=      100000 FMFlg1=           0
         NFxFlg=           0 DoJE=T BraDBF=F KetDBF=T FulRan=T
         wScrn=  0.000000 ICntrl=     500 IOpCl=  0 I1Cent=   200000004 NGrid=           0
         NMat0=    1 NMatS0=      1 NMatT0=    0 NMatD0=    1 NMtDS0=    0 NMtDT0=    0
 Petite list used in FoFCou.
 Harris En= -532.608009988751    
 JPrj=0 DoOrth=F DoCkMO=F.
 Leave Link  401 at Thu Mar 12 19:12:07 2020, MaxMem=    33554432 cpu:         0.8
 (Enter /usr/local/gaussian09d01/g09/l502.exe)
 Closed shell SCF:
 Using DIIS extrapolation, IDIIS=  1040.
 Integral symmetry usage will be decided dynamically.
 Keep R1 ints in memory in canonical form, NReq=24030401.
 IVT=       60528 IEndB=       60528 NGot=    33554432 MDV=    10465614
 LenX=    10465614 LenY=    10451717
 Requested convergence on RMS density matrix=1.00D-08 within 128 cycles.
 Requested convergence on MAX density matrix=1.00D-06.
 Requested convergence on             energy=1.00D-06.
 No special actions if energy rises.
 FoFCou: FMM=F IPFlag=           0 FMFlag=           0 FMFlg1=           0
         NFxFlg=           0 DoJE=F BraDBF=F KetDBF=F FulRan=T
         wScrn=  0.000000 ICntrl=     600 IOpCl=  0 I1Cent=           0 NGrid=           0
         NMat0=    1 NMatS0=   6786 NMatT0=    0 NMatD0=    1 NMtDS0=    0 NMtDT0=    0
 Symmetry not used in FoFCou.
 Integral accuracy reduced to 1.0D-05 until final iterations.

 Cycle   1  Pass 0  IDiag  1:
 E= -532.459315297721    
 DIIS: error= 5.92D-02 at cycle   1 NSaved=   1.
 NSaved= 1 IEnMin= 1 EnMin= -532.459315297721     IErMin= 1 ErrMin= 5.92D-02
 ErrMax= 5.92D-02  0.00D+00 EMaxC= 1.00D-01 BMatC= 3.28D-01 BMatP= 3.28D-01
 IDIUse=3 WtCom= 4.08D-01 WtEn= 5.92D-01
 Coeff-Com:  0.100D+01
 Coeff-En:   0.100D+01
 Coeff:      0.100D+01
 Gap=     0.084 Goal=   None    Shift=    0.000
 GapD=    0.084 DampG=0.500 DampE=0.500 DampFc=0.2500 IDamp=-1.
 Damping current iteration by 2.50D-01
 RMSDP=9.01D-03 MaxDP=1.64D-01              OVMax= 2.69D-01

 Cycle   2  Pass 0  IDiag  1:
 E= -532.567054391771     Delta-E=       -0.107739094051 Rises=F Damp=T
 DIIS: error= 3.23D-02 at cycle   2 NSaved=   2.
 NSaved= 2 IEnMin= 2 EnMin= -532.567054391771     IErMin= 2 ErrMin= 3.23D-02
 ErrMax= 3.23D-02  0.00D+00 EMaxC= 1.00D-01 BMatC= 8.58D-02 BMatP= 3.28D-01
 IDIUse=3 WtCom= 6.77D-01 WtEn= 3.23D-01
 Coeff-Com: -0.852D+00 0.185D+01
 Coeff-En:   0.000D+00 0.100D+01
 Coeff:     -0.577D+00 0.158D+01
 Gap=     0.195 Goal=   None    Shift=    0.000
 RMSDP=3.25D-03 MaxDP=6.10D-02 DE=-1.08D-01 OVMax= 1.45D-01

 Cycle   3  Pass 0  IDiag  1:
 E= -532.746076281414     Delta-E=       -0.179021889643 Rises=F Damp=F
 DIIS: error= 1.46D-02 at cycle   3 NSaved=   3.
 NSaved= 3 IEnMin= 3 EnMin= -532.746076281414     IErMin= 3 ErrMin= 1.46D-02
 ErrMax= 1.46D-02  0.00D+00 EMaxC= 1.00D-01 BMatC= 1.32D-02 BMatP= 8.58D-02
 IDIUse=3 WtCom= 8.54D-01 WtEn= 1.46D-01
 Coeff-Com: -0.205D+00 0.584D+00 0.620D+00
 Coeff-En:   0.000D+00 0.000D+00 0.100D+01
 Coeff:     -0.175D+00 0.499D+00 0.676D+00
 Gap=     0.215 Goal=   None    Shift=    0.000
 RMSDP=1.08D-03 MaxDP=2.12D-02 DE=-1.79D-01 OVMax= 2.82D-02

 Cycle   4  Pass 0  IDiag  1:
 E= -532.755453769912     Delta-E=       -0.009377488497 Rises=F Damp=F
 DIIS: error= 5.32D-03 at cycle   4 NSaved=   4.
 NSaved= 4 IEnMin= 4 EnMin= -532.755453769912     IErMin= 4 ErrMin= 5.32D-03
 ErrMax= 5.32D-03  0.00D+00 EMaxC= 1.00D-01 BMatC= 3.28D-03 BMatP= 1.32D-02
 IDIUse=3 WtCom= 9.47D-01 WtEn= 5.32D-02
 Coeff-Com:  0.743D-01-0.815D-01 0.359D+00 0.648D+00
 Coeff-En:   0.000D+00 0.000D+00 0.126D+00 0.874D+00
 Coeff:      0.703D-01-0.772D-01 0.347D+00 0.660D+00
 Gap=     0.211 Goal=   None    Shift=    0.000
 RMSDP=4.39D-04 MaxDP=9.32D-03 DE=-9.38D-03 OVMax= 1.35D-02

 Cycle   5  Pass 0  IDiag  1:
 E= -532.757979930722     Delta-E=       -0.002526160811 Rises=F Damp=F
 DIIS: error= 1.10D-03 at cycle   5 NSaved=   5.
 NSaved= 5 IEnMin= 5 EnMin= -532.757979930722     IErMin= 5 ErrMin= 1.10D-03
 ErrMax= 1.10D-03  0.00D+00 EMaxC= 1.00D-01 BMatC= 1.98D-04 BMatP= 3.28D-03
 IDIUse=3 WtCom= 9.89D-01 WtEn= 1.10D-02
 Coeff-Com:  0.522D-01-0.763D-01 0.154D+00 0.342D+00 0.528D+00
 Coeff-En:   0.000D+00 0.000D+00 0.000D+00 0.000D+00 0.100D+01
 Coeff:      0.516D-01-0.755D-01 0.152D+00 0.338D+00 0.534D+00
 Gap=     0.213 Goal=   None    Shift=    0.000
 RMSDP=1.18D-04 MaxDP=2.11D-03 DE=-2.53D-03 OVMax= 3.40D-03

 Cycle   6  Pass 0  IDiag  1:
 E= -532.758146974448     Delta-E=       -0.000167043726 Rises=F Damp=F
 DIIS: error= 3.10D-04 at cycle   6 NSaved=   6.
 NSaved= 6 IEnMin= 6 EnMin= -532.758146974448     IErMin= 6 ErrMin= 3.10D-04
 ErrMax= 3.10D-04  0.00D+00 EMaxC= 1.00D-01 BMatC= 1.01D-05 BMatP= 1.98D-04
 IDIUse=3 WtCom= 9.97D-01 WtEn= 3.10D-03
 Coeff-Com:  0.184D-01-0.276D-01 0.412D-01 0.806D-01 0.204D+00 0.683D+00
 Coeff-En:   0.000D+00 0.000D+00 0.000D+00 0.000D+00 0.000D+00 0.100D+01
 Coeff:      0.184D-01-0.275D-01 0.411D-01 0.804D-01 0.204D+00 0.684D+00
 Gap=     0.213 Goal=   None    Shift=    0.000
 RMSDP=3.89D-05 MaxDP=8.81D-04 DE=-1.67D-04 OVMax= 1.78D-03

 Cycle   7  Pass 0  IDiag  1:
 E= -532.758156279610     Delta-E=       -0.000009305162 Rises=F Damp=F
 DIIS: error= 2.94D-04 at cycle   7 NSaved=   7.
 NSaved= 7 IEnMin= 7 EnMin= -532.758156279610     IErMin= 7 ErrMin= 2.94D-04
 ErrMax= 2.94D-04  0.00D+00 EMaxC= 1.00D-01 BMatC= 4.13D-06 BMatP= 1.01D-05
 IDIUse=3 WtCom= 9.97D-01 WtEn= 2.94D-03
 Coeff-Com: -0.473D-03 0.344D-03-0.119D-01-0.390D-01-0.527D-02 0.464D+00
 Coeff-Com:  0.592D+00
 Coeff-En:   0.000D+00 0.000D+00 0.000D+00 0.000D+00 0.000D+00 0.896D-01
 Coeff-En:   0.910D+00
 Coeff:     -0.472D-03 0.343D-03-0.119D-01-0.389D-01-0.526D-02 0.463D+00
 Coeff:      0.593D+00
 Gap=     0.213 Goal=   None    Shift=    0.000
 RMSDP=2.31D-05 MaxDP=3.66D-04 DE=-9.31D-06 OVMax= 5.17D-04

 Cycle   8  Pass 0  IDiag  1:
 E= -532.758160023629     Delta-E=       -0.000003744020 Rises=F Damp=F
 DIIS: error= 2.35D-05 at cycle   8 NSaved=   8.
 NSaved= 8 IEnMin= 8 EnMin= -532.758160023629     IErMin= 8 ErrMin= 2.35D-05
 ErrMax= 2.35D-05  0.00D+00 EMaxC= 1.00D-01 BMatC= 1.03D-07 BMatP= 4.13D-06
 IDIUse=1 WtCom= 1.00D+00 WtEn= 0.00D+00
 Coeff-Com: -0.235D-02 0.331D-02-0.900D-02-0.233D-01-0.258D-01 0.984D-01
 Coeff-Com:  0.165D+00 0.794D+00
 Coeff:     -0.235D-02 0.331D-02-0.900D-02-0.233D-01-0.258D-01 0.984D-01
 Coeff:      0.165D+00 0.794D+00
 Gap=     0.213 Goal=   None    Shift=    0.000
 RMSDP=6.86D-06 MaxDP=1.11D-04 DE=-3.74D-06 OVMax= 2.16D-04

 Initial convergence to 1.0D-05 achieved.  Increase integral accuracy.
 Cycle   9  Pass 1  IDiag  1:
 E= -532.758299364628     Delta-E=       -0.000139340999 Rises=F Damp=F
 DIIS: error= 1.35D-04 at cycle   1 NSaved=   1.
 NSaved= 1 IEnMin= 1 EnMin= -532.758299364628     IErMin= 1 ErrMin= 1.35D-04
 ErrMax= 1.35D-04  0.00D+00 EMaxC= 1.00D-01 BMatC= 1.89D-06 BMatP= 1.89D-06
 IDIUse=3 WtCom= 9.99D-01 WtEn= 1.35D-03
 Coeff-Com:  0.100D+01
 Coeff-En:   0.100D+01
 Coeff:      0.100D+01
 Gap=     0.213 Goal=   None    Shift=    0.000
 RMSDP=6.86D-06 MaxDP=1.11D-04 DE=-1.39D-04 OVMax= 1.95D-04

 Cycle  10  Pass 1  IDiag  1:
 E= -532.758301068339     Delta-E=       -0.000001703711 Rises=F Damp=F
 DIIS: error= 7.71D-05 at cycle   2 NSaved=   2.
 NSaved= 2 IEnMin= 2 EnMin= -532.758301068339     IErMin= 2 ErrMin= 7.71D-05
 ErrMax= 7.71D-05  0.00D+00 EMaxC= 1.00D-01 BMatC= 3.86D-07 BMatP= 1.89D-06
 IDIUse=1 WtCom= 1.00D+00 WtEn= 0.00D+00
 Coeff-Com:  0.239D+00 0.761D+00
 Coeff:      0.239D+00 0.761D+00
 Gap=     0.213 Goal=   None    Shift=    0.000
 RMSDP=7.86D-06 MaxDP=1.28D-04 DE=-1.70D-06 OVMax= 2.49D-04

 Cycle  11  Pass 1  IDiag  1:
 E= -532.758301313163     Delta-E=       -0.000000244823 Rises=F Damp=F
 DIIS: error= 3.24D-05 at cycle   3 NSaved=   3.
 NSaved= 3 IEnMin= 3 EnMin= -532.758301313163     IErMin= 3 ErrMin= 3.24D-05
 ErrMax= 3.24D-05  0.00D+00 EMaxC= 1.00D-01 BMatC= 1.66D-07 BMatP= 3.86D-07
 IDIUse=1 WtCom= 1.00D+00 WtEn= 0.00D+00
 Coeff-Com: -0.289D-01 0.383D+00 0.646D+00
 Coeff:     -0.289D-01 0.383D+00 0.646D+00
 Gap=     0.213 Goal=   None    Shift=    0.000
 RMSDP=4.31D-06 MaxDP=9.69D-05 DE=-2.45D-07 OVMax= 1.42D-04

 Cycle  12  Pass 1  IDiag  1:
 E= -532.758301450402     Delta-E=       -0.000000137240 Rises=F Damp=F
 DIIS: error= 1.40D-05 at cycle   4 NSaved=   4.
 NSaved= 4 IEnMin= 4 EnMin= -532.758301450402     IErMin= 4 ErrMin= 1.40D-05
 ErrMax= 1.40D-05  0.00D+00 EMaxC= 1.00D-01 BMatC= 2.54D-08 BMatP= 1.66D-07
 IDIUse=1 WtCom= 1.00D+00 WtEn= 0.00D+00
 Coeff-Com: -0.306D-01 0.187D+00 0.396D+00 0.448D+00
 Coeff:     -0.306D-01 0.187D+00 0.396D+00 0.448D+00
 Gap=     0.213 Goal=   None    Shift=    0.000
 RMSDP=1.11D-06 MaxDP=3.30D-05 DE=-1.37D-07 OVMax= 4.36D-05

 Cycle  13  Pass 1  IDiag  1:
 E= -532.758301473379     Delta-E=       -0.000000022977 Rises=F Damp=F
 DIIS: error= 2.28D-06 at cycle   5 NSaved=   5.
 NSaved= 5 IEnMin= 5 EnMin= -532.758301473379     IErMin= 5 ErrMin= 2.28D-06
 ErrMax= 2.28D-06  0.00D+00 EMaxC= 1.00D-01 BMatC= 6.65D-10 BMatP= 2.54D-08
 IDIUse=1 WtCom= 1.00D+00 WtEn= 0.00D+00
 Coeff-Com: -0.105D-01 0.327D-01 0.954D-01 0.158D+00 0.724D+00
 Coeff:     -0.105D-01 0.327D-01 0.954D-01 0.158D+00 0.724D+00
 Gap=     0.213 Goal=   None    Shift=    0.000
 RMSDP=3.12D-07 MaxDP=7.14D-06 DE=-2.30D-08 OVMax= 7.68D-06

 Cycle  14  Pass 1  IDiag  1:
 E= -532.758301473935     Delta-E=       -0.000000000556 Rises=F Damp=F
 DIIS: error= 1.02D-06 at cycle   6 NSaved=   6.
 NSaved= 6 IEnMin= 6 EnMin= -532.758301473935     IErMin= 6 ErrMin= 1.02D-06
 ErrMax= 1.02D-06  0.00D+00 EMaxC= 1.00D-01 BMatC= 1.79D-10 BMatP= 6.65D-10
 IDIUse=1 WtCom= 1.00D+00 WtEn= 0.00D+00
 Coeff-Com:  0.209D-03-0.133D-01-0.161D-01 0.128D-02 0.361D+00 0.667D+00
 Coeff:      0.209D-03-0.133D-01-0.161D-01 0.128D-02 0.361D+00 0.667D+00
 Gap=     0.213 Goal=   None    Shift=    0.000
 RMSDP=1.24D-07 MaxDP=2.35D-06 DE=-5.56D-10 OVMax= 4.61D-06

 Cycle  15  Pass 1  IDiag  1:
 E= -532.758301474116     Delta-E=       -0.000000000181 Rises=F Damp=F
 DIIS: error= 2.39D-07 at cycle   7 NSaved=   7.
 NSaved= 7 IEnMin= 7 EnMin= -532.758301474116     IErMin= 7 ErrMin= 2.39D-07
 ErrMax= 2.39D-07  0.00D+00 EMaxC= 1.00D-01 BMatC= 3.95D-12 BMatP= 1.79D-10
 IDIUse=1 WtCom= 1.00D+00 WtEn= 0.00D+00
 Coeff-Com:  0.628D-03-0.339D-02-0.909D-02-0.899D-02-0.214D-01 0.794D-01
 Coeff-Com:  0.963D+00
 Coeff:      0.628D-03-0.339D-02-0.909D-02-0.899D-02-0.214D-01 0.794D-01
 Coeff:      0.963D+00
 Gap=     0.213 Goal=   None    Shift=    0.000
 RMSDP=5.08D-08 MaxDP=9.22D-07 DE=-1.81D-10 OVMax= 2.19D-06

 Cycle  16  Pass 1  IDiag  1:
 E= -532.758301474114     Delta-E=        0.000000000002 Rises=F Damp=F
 DIIS: error= 8.80D-08 at cycle   8 NSaved=   8.
 NSaved= 8 IEnMin= 7 EnMin= -532.758301474116     IErMin= 8 ErrMin= 8.80D-08
 ErrMax= 8.80D-08  0.00D+00 EMaxC= 1.00D-01 BMatC= 6.35D-13 BMatP= 3.95D-12
 IDIUse=1 WtCom= 1.00D+00 WtEn= 0.00D+00
 Coeff-Com:  0.246D-03-0.678D-03-0.241D-02-0.416D-02-0.245D-01-0.634D-02
 Coeff-Com:  0.336D+00 0.702D+00
 Coeff:      0.246D-03-0.678D-03-0.241D-02-0.416D-02-0.245D-01-0.634D-02
 Coeff:      0.336D+00 0.702D+00
 Gap=     0.213 Goal=   None    Shift=    0.000
 RMSDP=1.06D-08 MaxDP=2.13D-07 DE= 1.82D-12 OVMax= 4.38D-07

 Cycle  17  Pass 1  IDiag  1:
 E= -532.758301474121     Delta-E=       -0.000000000007 Rises=F Damp=F
 DIIS: error= 3.50D-08 at cycle   9 NSaved=   9.
 NSaved= 9 IEnMin= 9 EnMin= -532.758301474121     IErMin= 9 ErrMin= 3.50D-08
 ErrMax= 3.50D-08  0.00D+00 EMaxC= 1.00D-01 BMatC= 1.24D-13 BMatP= 6.35D-13
 IDIUse=1 WtCom= 1.00D+00 WtEn= 0.00D+00
 Coeff-Com: -0.505D-04 0.540D-03 0.120D-02 0.252D-04-0.740D-02-0.234D-01
 Coeff-Com: -0.642D-01 0.265D+00 0.829D+00
 Coeff:     -0.505D-04 0.540D-03 0.120D-02 0.252D-04-0.740D-02-0.234D-01
 Coeff:     -0.642D-01 0.265D+00 0.829D+00
 Gap=     0.213 Goal=   None    Shift=    0.000
 RMSDP=6.68D-09 MaxDP=1.29D-07 DE=-6.59D-12 OVMax= 2.21D-07

 SCF Done:  E(RM062X) =  -532.758301474     A.U. after   17 cycles
            NFock= 17  Conv=0.67D-08     -V/T= 2.0061
 KE= 5.295295190954D+02 PE=-2.398153942797D+03 EE= 7.529719466705D+02
 Leave Link  502 at Thu Mar 12 19:13:01 2020, MaxMem=    33554432 cpu:        54.1
 (Enter /usr/local/gaussian09d01/g09/l601.exe)
 Copying SCF densities to generalized density rwf, IOpCl= 0 IROHF=0.

 **********************************************************************

            Population analysis using the SCF density.

 **********************************************************************

 Orbital symmetries:
       Occupied  (A) (A) (A) (A) (A) (A) (A) (A) (A) (A) (A) (A)
                 (A) (A) (A) (A) (A) (A) (A) (A) (A) (A) (A) (A)
                 (A) (A) (A) (A) (A) (A) (A) (A) (A) (A) (A) (A)
                 (A) (A) (A) (A)
       Virtual   (A) (A) (A) (A) (A) (A) (A) (A) (A) (A) (A) (A)
                 (A) (A) (A) (A) (A) (A) (A) (A) (A) (A) (A) (A)
                 (A) (A) (A) (A) (A) (A) (A) (A) (A) (A) (A) (A)
                 (A) (A) (A) (A) (A) (A) (A) (A) (A) (A) (A) (A)
                 (A) (A) (A) (A) (A) (A) (A) (A) (A) (A) (A) (A)
                 (A) (A) (A) (A) (A) (A) (A) (A) (A) (A) (A) (A)
                 (A) (A) (A) (A)
 The electronic state is 1-A.
 Alpha  occ. eigenvalues --  -19.86706 -19.83674 -19.80043 -14.99255 -14.93059
 Alpha  occ. eigenvalues --  -10.87444 -10.85724 -10.77504 -10.74894 -10.62919
 Alpha  occ. eigenvalues --   -1.41035  -1.39819  -1.30793  -1.22302  -1.17653
 Alpha  occ. eigenvalues --   -1.05131  -0.95823  -0.91263  -0.89801  -0.85369
 Alpha  occ. eigenvalues --   -0.78940  -0.77204  -0.75546  -0.73226  -0.72481
 Alpha  occ. eigenvalues --   -0.71413  -0.68751  -0.66311  -0.64313  -0.63855
 Alpha  occ. eigenvalues --   -0.60991  -0.60299  -0.58672  -0.56930  -0.56707
 Alpha  occ. eigenvalues --   -0.55764  -0.54299  -0.53101  -0.51091  -0.48626
 Alpha virt. eigenvalues --   -0.27303  -0.14113  -0.11766  -0.05689  -0.02210
 Alpha virt. eigenvalues --   -0.00227   0.01490   0.02328   0.05095   0.05597
 Alpha virt. eigenvalues --    0.07300   0.07474   0.08100   0.11184   0.11386
 Alpha virt. eigenvalues --    0.11627   0.12629   0.13617   0.16542   0.19256
 Alpha virt. eigenvalues --    0.22014   0.25423   0.29126   0.39848   0.43184
 Alpha virt. eigenvalues --    0.44374   0.46499   0.48060   0.48371   0.48564
 Alpha virt. eigenvalues --    0.50489   0.52485   0.52668   0.56175   0.58859
 Alpha virt. eigenvalues --    0.59223   0.61748   0.62883   0.64314   0.65550
 Alpha virt. eigenvalues --    0.68145   0.69359   0.71604   0.75408   0.75947
 Alpha virt. eigenvalues --    0.77651   0.79224   0.81537   0.83636   0.84070
 Alpha virt. eigenvalues --    0.85567   0.87706   0.88309   0.88428   0.90782
 Alpha virt. eigenvalues --    0.92094   0.92648   0.94749   0.95326   0.97014
 Alpha virt. eigenvalues --    1.02725   1.03544   1.04324   1.09978   1.12286
 Alpha virt. eigenvalues --    1.12965   1.18626   1.20758   1.29722   1.34745
 Alpha virt. eigenvalues --    1.41310   1.52929   1.62666   1.74991   1.77022
 Alpha virt. eigenvalues --    1.86995
          Condensed to atoms (all electrons):
               1          2          3          4          5          6
     1  C    5.189006   0.375371   0.371814   0.000000   0.370305   0.370832
     2  H    0.375371   0.470511  -0.017968   0.000000  -0.019900  -0.020380
     3  H    0.371814  -0.017968   0.519843   0.000000  -0.029445  -0.030050
     4  H    0.000000   0.000000   0.000000   0.300538   0.000000   0.000000
     5  H    0.370305  -0.019900  -0.029445   0.000000   0.538164  -0.032239
     6  H    0.370832  -0.020380  -0.030050   0.000000  -0.032239   0.545857
     7  C    0.000000   0.000000  -0.000001  -0.005385   0.000000   0.000000
     8  C   -0.000005   0.000001   0.000084   0.000154  -0.000011  -0.000007
     9  C    0.000249   0.000038   0.001495   0.000041  -0.000152  -0.000130
    10  N    0.000000   0.000000  -0.000001   0.000027   0.000000   0.000000
    11  O   -0.001324   0.000015   0.003332   0.000363   0.000043   0.000016
    12  O   -0.005196   0.000175  -0.001631   0.000000  -0.000758  -0.000629
    13  C    0.000000   0.000000   0.000000  -0.015313   0.000000   0.000000
    14  H    0.000000   0.000000   0.000000   0.000004   0.000000   0.000000
    15  H    0.000000   0.000000   0.000000   0.003536   0.000000   0.000000
    16  H    0.000001   0.000000  -0.000002   0.000004   0.000000   0.000000
    17  H    0.000000   0.000000   0.000000  -0.000057   0.000000   0.000000
    18  H   -0.000001   0.000000   0.000000   0.000000   0.000000   0.000000
    19  H    0.026761  -0.000931   0.002070   0.000000   0.005153   0.004675
    20  N    0.000000   0.000000   0.000000   0.005552   0.000000   0.000000
    21  O    0.000000   0.000000   0.000000   0.254980   0.000000   0.000000
    22  H    0.000000   0.000000   0.000000  -0.000001   0.000000   0.000000
    23  H    0.000000   0.000000   0.000000   0.000069   0.000000   0.000000
               7          8          9         10         11         12
     1  C    0.000000  -0.000005   0.000249   0.000000  -0.001324  -0.005196
     2  H    0.000000   0.000001   0.000038   0.000000   0.000015   0.000175
     3  H   -0.000001   0.000084   0.001495  -0.000001   0.003332  -0.001631
     4  H   -0.005385   0.000154   0.000041   0.000027   0.000363   0.000000
     5  H    0.000000  -0.000011  -0.000152   0.000000   0.000043  -0.000758
     6  H    0.000000  -0.000007  -0.000130   0.000000   0.000016  -0.000629
     7  C    5.443497   0.222720  -0.047647  -0.077675   0.007987   0.005330
     8  C    0.222720   5.572219   0.151708   0.191341  -0.124064  -0.148802
     9  C   -0.047647   0.151708   4.752544  -0.049242   0.497611   0.192969
    10  N   -0.077675   0.191341  -0.049242   7.091973   0.002180   0.001885
    11  O    0.007987  -0.124064   0.497611   0.002180   8.120694  -0.108491
    12  O    0.005330  -0.148802   0.192969   0.001885  -0.108491   8.422168
    13  C    0.254568  -0.018525  -0.007943   0.000168   0.009358  -0.000535
    14  H    0.376716  -0.027907   0.005638  -0.001420   0.000409  -0.000027
    15  H    0.364656  -0.028093  -0.002155   0.003900   0.004779   0.000133
    16  H   -0.043465   0.384612  -0.026949  -0.036012   0.001044   0.000900
    17  H   -0.007367  -0.010895  -0.000787   0.084964   0.000204  -0.000050
    18  H    0.004871  -0.034105  -0.007488   0.319765   0.000227   0.013414
    19  H   -0.000159   0.005473  -0.018648  -0.000119  -0.000567   0.237136
    20  N   -0.104683   0.001957   0.000247  -0.068556  -0.003424   0.000049
    21  O   -0.065130   0.002470  -0.000509  -0.000126  -0.001373  -0.000001
    22  H   -0.000892  -0.028792   0.004118   0.321129  -0.000080  -0.000008
    23  H    0.001174  -0.000036  -0.000016   0.000484   0.000004   0.000000
              13         14         15         16         17         18
     1  C    0.000000   0.000000   0.000000   0.000001   0.000000  -0.000001
     2  H    0.000000   0.000000   0.000000   0.000000   0.000000   0.000000
     3  H    0.000000   0.000000   0.000000  -0.000002   0.000000   0.000000
     4  H   -0.015313   0.000004   0.003536   0.000004  -0.000057   0.000000
     5  H    0.000000   0.000000   0.000000   0.000000   0.000000   0.000000
     6  H    0.000000   0.000000   0.000000   0.000000   0.000000   0.000000
     7  C    0.254568   0.376716   0.364656  -0.043465  -0.007367   0.004871
     8  C   -0.018525  -0.027907  -0.028093   0.384612  -0.010895  -0.034105
     9  C   -0.007943   0.005638  -0.002155  -0.026949  -0.000787  -0.007488
    10  N    0.000168  -0.001420   0.003900  -0.036012   0.084964   0.319765
    11  O    0.009358   0.000409   0.004779   0.001044   0.000204   0.000227
    12  O   -0.000535  -0.000027   0.000133   0.000900  -0.000050   0.013414
    13  C    4.704485  -0.035965  -0.031059   0.004479  -0.032984   0.000123
    14  H   -0.035965   0.446470  -0.016865  -0.002945  -0.000378  -0.000058
    15  H   -0.031059  -0.016865   0.470094  -0.000666   0.000289  -0.000100
    16  H    0.004479  -0.002945  -0.000666   0.462624   0.000974   0.001003
    17  H   -0.032984  -0.000378   0.000289   0.000974   0.286989  -0.000350
    18  H    0.000123  -0.000058  -0.000100   0.001003  -0.000350   0.337164
    19  H   -0.000012   0.000002  -0.000003  -0.000245  -0.000020  -0.000269
    20  N    0.326713  -0.001781   0.004467  -0.000220   0.257427   0.000311
    21  O    0.296643   0.001048  -0.002422  -0.000065   0.001484   0.000002
    22  H   -0.000310   0.001620  -0.000073  -0.003667  -0.001418  -0.020848
    23  H    0.001521  -0.000022  -0.000021   0.000002   0.000826  -0.000004
              19         20         21         22         23
     1  C    0.026761   0.000000   0.000000   0.000000   0.000000
     2  H   -0.000931   0.000000   0.000000   0.000000   0.000000
     3  H    0.002070   0.000000   0.000000   0.000000   0.000000
     4  H    0.000000   0.005552   0.254980  -0.000001   0.000069
     5  H    0.005153   0.000000   0.000000   0.000000   0.000000
     6  H    0.004675   0.000000   0.000000   0.000000   0.000000
     7  C   -0.000159  -0.104683  -0.065130  -0.000892   0.001174
     8  C    0.005473   0.001957   0.002470  -0.028792  -0.000036
     9  C   -0.018648   0.000247  -0.000509   0.004118  -0.000016
    10  N   -0.000119  -0.068556  -0.000126   0.321129   0.000484
    11  O   -0.000567  -0.003424  -0.001373  -0.000080   0.000004
    12  O    0.237136   0.000049  -0.000001  -0.000008   0.000000
    13  C   -0.000012   0.326713   0.296643  -0.000310   0.001521
    14  H    0.000002  -0.001781   0.001048   0.001620  -0.000022
    15  H   -0.000003   0.004467  -0.002422  -0.000073  -0.000021
    16  H   -0.000245  -0.000220  -0.000065  -0.003667   0.000002
    17  H   -0.000020   0.257427   0.001484  -0.001418   0.000826
    18  H   -0.000269   0.000311   0.000002  -0.020848  -0.000004
    19  H    0.275587   0.000011   0.000000   0.000017   0.000000
    20  N    0.000011   7.063319  -0.109564   0.000893   0.171191
    21  O    0.000000  -0.109564   8.173408   0.000002  -0.002130
    22  H    0.000017   0.000893   0.000002   0.369051  -0.000006
    23  H    0.000000   0.171191  -0.002130  -0.000006   0.448286
 Mulliken charges:
               1
     1  C   -0.697814
     2  H    0.213069
     3  H    0.180459
     4  H    0.455489
     5  H    0.168840
     6  H    0.162055
     7  C   -0.329114
     8  C   -0.111498
     9  C    0.555008
    10  N   -0.784664
    11  O   -0.408942
    12  O   -0.608032
    13  C    0.544589
    14  H    0.255461
    15  H    0.229602
    16  H    0.258593
    17  H    0.421150
    18  H    0.386340
    19  H    0.464087
    20  N   -0.543908
    21  O   -0.548717
    22  H    0.359265
    23  H    0.378681
 Sum of Mulliken charges =   1.00000
 Mulliken charges with hydrogens summed into heavy atoms:
               1
     1  C    0.026609
     7  C    0.155950
     8  C    0.147096
     9  C    0.555008
    10  N   -0.039059
    11  O   -0.408942
    12  O   -0.143945
    13  C    0.544589
    20  N    0.255923
    21  O   -0.093228
 Electronic spatial extent (au):  <R**2>=           2008.8569
 Charge=              1.0000 electrons
 Dipole moment (field-independent basis, Debye):
    X=              4.9068    Y=              1.3951    Z=              1.1525  Tot=              5.2299
 Quadrupole moment (field-independent basis, Debye-Ang):
   XX=            -33.4242   YY=            -46.5362   ZZ=            -41.9884
   XY=             -2.6369   XZ=              0.0851   YZ=             -2.9641
 Traceless Quadrupole moment (field-independent basis, Debye-Ang):
   XX=              7.2254   YY=             -5.8866   ZZ=             -1.3388
   XY=             -2.6369   XZ=              0.0851   YZ=             -2.9641
 Octapole moment (field-independent basis, Debye-Ang**2):
  XXX=            -20.5502  YYY=             15.3098  ZZZ=             33.4157  XYY=             26.9770
  XXY=            -22.0453  XXZ=              7.6436  XZZ=             39.2022  YZZ=            -21.0305
  YYZ=              3.0108  XYZ=             -3.4310
 Hexadecapole moment (field-independent basis, Debye-Ang**3):
 XXXX=          -1447.5976 YYYY=           -434.4869 ZZZZ=           -137.0551 XXXY=             16.1422
 XXXZ=            -11.0649 YYYX=            -18.2028 YYYZ=             27.5484 ZZZX=             81.0054
 ZZZY=            -52.4594 XXYY=           -324.1923 XXZZ=           -255.2281 YYZZ=            -84.9912
 XXYZ=            -13.5406 YYXZ=             -5.7109 ZZXY=            -67.6528
 N-N= 5.828941755575D+02 E-N=-2.398153943084D+03  KE= 5.295295190954D+02
 No NMR shielding tensors so no spin-rotation constants.
 Leave Link  601 at Thu Mar 12 19:13:01 2020, MaxMem=    33554432 cpu:         0.1
 (Enter /usr/local/gaussian09d01/g09/l9999.exe)
 1\1\GINC-KARURA\SP\RM062X\6-31G\C5H13N2O3(1+)\RTAKE\12-Mar-2020\0\\#p 
 M062X/6-31G\\chk calc\\1,1\C,0,3.824482709,-1.14219544,1.17225369\H,0,
 4.799113079,-1.62961423,1.173808707\H,0,3.053614027,-1.916312598,1.160
 804944\H,0,-2.540416453,-2.844981592,-1.014302773\H,0,3.75960642,-0.53
 291794,2.07824618\H,0,3.765323683,-0.52154146,0.273951194\C,0,-2.40154
 2122,-0.705499021,0.492562549\C,0,-1.33365594,0.193207044,1.141270536\
 C,0,0.021967089,-0.47033751,0.950186539\N,0,-1.303304814,1.529148773,0
 .515945207\O,0,0.155929117,-1.611462803,0.51692019\O,0,1.024922388,0.3
 53392554,1.298656\C,0,-2.121889445,-0.918337302,-0.967112723\H,0,-3.39
 229932,-0.247402335,0.596496855\H,0,-2.419176945,-1.669900059,1.004436
 439\H,0,-1.526304416,0.239474424,2.221387894\H,0,-1.503902114,0.960750
 702,-1.170400229\H,0,-0.410560182,1.997532273,0.666150752\H,0,1.924402
 159,-0.039925506,1.230818645\N,0,-1.700457396,0.069239192,-1.694919761
 \O,0,-2.336854815,-2.071648312,-1.575178364\H,0,-2.071900591,2.1285565
 43,0.807834339\H,0,-1.346964939,-0.16588572,-3.576517675\\Version=ES64
 L-G09RevD.01\State=1-A\HF=-532.7583015\RMSD=6.683e-09\Dipole=-1.740596
 9,0.7101681,-0.836462\Quadrupole=3.8051044,-5.4209762,1.6158717,1.6870
 576,2.6650723,0.1330162\PG=C01 [X(C5H13N2O3)]\\@


 Human beings, who are almost unique in having the
 ability to learn from the experience of others, are
 also remarkable for their apparent disinclination to do so.
                               -- Douglas Adams,
                                Last Chance to See
 Job cpu time:       0 days  0 hours  0 minutes 55.5 seconds.
 File lengths (MBytes):  RWF=      7 Int=      0 D2E=      0 Chk=      2 Scr=      1
 Normal termination of Gaussian 09 at Thu Mar 12 19:13:01 2020.
