 Entering Gaussian System, Link 0=g09
 Input=./n20_h23_13.gjf
 Output=./n20_h23_13.log
 Initial command:
 /usr/local/gaussian09d01/g09/l1.exe "/scr/Gau-20149.inp" -scrdir="/scr/"
 Entering Link 1 = /usr/local/gaussian09d01/g09/l1.exe PID=     20151.
  
 Copyright (c) 1988,1990,1992,1993,1995,1998,2003,2009,2013,
            Gaussian, Inc.  All Rights Reserved.
  
 This is part of the Gaussian(R) 09 program.  It is based on
 the Gaussian(R) 03 system (copyright 2003, Gaussian, Inc.),
 the Gaussian(R) 98 system (copyright 1998, Gaussian, Inc.),
 the Gaussian(R) 94 system (copyright 1995, Gaussian, Inc.),
 the Gaussian 92(TM) system (copyright 1992, Gaussian, Inc.),
 the Gaussian 90(TM) system (copyright 1990, Gaussian, Inc.),
 the Gaussian 88(TM) system (copyright 1988, Gaussian, Inc.),
 the Gaussian 86(TM) system (copyright 1986, Carnegie Mellon
 University), and the Gaussian 82(TM) system (copyright 1983,
 Carnegie Mellon University). Gaussian is a federally registered
 trademark of Gaussian, Inc.
  
 This software contains proprietary and confidential information,
 including trade secrets, belonging to Gaussian, Inc.
  
 This software is provided under written license and may be
 used, copied, transmitted, or stored only in accord with that
 written license.
  
 The following legend is applicable only to US Government
 contracts under FAR:
  
                    RESTRICTED RIGHTS LEGEND
  
 Use, reproduction and disclosure by the US Government is
 subject to restrictions as set forth in subparagraphs (a)
 and (c) of the Commercial Computer Software - Restricted
 Rights clause in FAR 52.227-19.
  
 Gaussian, Inc.
 340 Quinnipiac St., Bldg. 40, Wallingford CT 06492
  
  
 ---------------------------------------------------------------
 Warning -- This program may not be used in any manner that
 competes with the business of Gaussian, Inc. or will provide
 assistance to any competitor of Gaussian, Inc.  The licensee
 of this program is prohibited from giving any competitor of
 Gaussian, Inc. access to this program.  By using this program,
 the user acknowledges that Gaussian, Inc. is engaged in the
 business of creating and licensing software in the field of
 computational chemistry and represents and warrants to the
 licensee that it is not a competitor of Gaussian, Inc. and that
 it will not use this program in any manner prohibited above.
 ---------------------------------------------------------------
  

 Cite this work as:
 Gaussian 09, Revision D.01,
 M. J. Frisch, G. W. Trucks, H. B. Schlegel, G. E. Scuseria, 
 M. A. Robb, J. R. Cheeseman, G. Scalmani, V. Barone, B. Mennucci, 
 G. A. Petersson, H. Nakatsuji, M. Caricato, X. Li, H. P. Hratchian, 
 A. F. Izmaylov, J. Bloino, G. Zheng, J. L. Sonnenberg, M. Hada, 
 M. Ehara, K. Toyota, R. Fukuda, J. Hasegawa, M. Ishida, T. Nakajima, 
 Y. Honda, O. Kitao, H. Nakai, T. Vreven, J. A. Montgomery, Jr., 
 J. E. Peralta, F. Ogliaro, M. Bearpark, J. J. Heyd, E. Brothers, 
 K. N. Kudin, V. N. Staroverov, T. Keith, R. Kobayashi, J. Normand, 
 K. Raghavachari, A. Rendell, J. C. Burant, S. S. Iyengar, J. Tomasi, 
 M. Cossi, N. Rega, J. M. Millam, M. Klene, J. E. Knox, J. B. Cross, 
 V. Bakken, C. Adamo, J. Jaramillo, R. Gomperts, R. E. Stratmann, 
 O. Yazyev, A. J. Austin, R. Cammi, C. Pomelli, J. W. Ochterski, 
 R. L. Martin, K. Morokuma, V. G. Zakrzewski, G. A. Voth, 
 P. Salvador, J. J. Dannenberg, S. Dapprich, A. D. Daniels, 
 O. Farkas, J. B. Foresman, J. V. Ortiz, J. Cioslowski, 
 and D. J. Fox, Gaussian, Inc., Wallingford CT, 2013.
 
 ******************************************
 Gaussian 09:  ES64L-G09RevD.01 24-Apr-2013
                12-Mar-2020 
 ******************************************
 --------------
 #p M062X/6-31G
 --------------
 1/38=1/1;
 2/12=2,17=6,18=5,40=1/2;
 3/5=1,6=6,11=2,16=1,25=1,30=1,74=-55/1,2,3;
 4//1;
 5/5=2,38=5/2;
 6/7=2,8=2,9=2,10=2,28=1/1;
 99/5=1,9=1/99;
 Leave Link    1 at Thu Mar 12 19:06:31 2020, MaxMem=           0 cpu:         0.0
 (Enter /usr/local/gaussian09d01/g09/l101.exe)
 --------
 chk calc
 --------
 Symbolic Z-matrix:
 Charge =  1 Multiplicity = 1
 C                     3.82448  -1.1422    1.17225 
 H                     4.79911  -1.62961   1.17381 
 H                     3.05361  -1.91631   1.1608 
 H                    -2.54042  -2.84498  -1.0143 
 H                     3.75961  -0.53292   2.07825 
 H                     3.76532  -0.52154   0.27395 
 C                    -2.40154  -0.7055    0.49256 
 C                    -1.33366   0.19321   1.14127 
 C                     0.02197  -0.47034   0.95019 
 N                    -1.3033    1.52915   0.51595 
 O                     0.15593  -1.61146   0.51692 
 O                     1.02492   0.35339   1.29866 
 C                    -2.12189  -0.91834  -0.96711 
 H                    -3.3923   -0.2474    0.5965 
 H                    -2.41918  -1.6699    1.00444 
 H                    -1.5263    0.23947   2.22139 
 H                    -1.5039    0.96075  -1.1704 
 H                    -0.41056   1.99753   0.66615 
 H                     1.9244   -0.03993   1.23082 
 N                    -1.70046   0.06924  -1.69492 
 O                    -2.33685  -2.07165  -1.57518 
 H                    -2.0719    2.12856   0.80783 
 H                    -1.45859  -0.09164  -2.98233 
 
 NAtoms=     23 NQM=       23 NQMF=       0 NMMI=      0 NMMIF=      0
                NMic=       0 NMicF=      0.
                    Isotopes and Nuclear Properties:
 (Nuclear quadrupole moments (NQMom) in fm**2, nuclear magnetic moments (NMagM)
  in nuclear magnetons)

  Atom         1           2           3           4           5           6           7           8           9          10
 IAtWgt=          12           1           1           1           1           1          12          12          12          14
 AtmWgt=  12.0000000   1.0078250   1.0078250   1.0078250   1.0078250   1.0078250  12.0000000  12.0000000  12.0000000  14.0030740
 NucSpn=           0           1           1           1           1           1           0           0           0           2
 AtZEff=   0.0000000   0.0000000   0.0000000   0.0000000   0.0000000   0.0000000   0.0000000   0.0000000   0.0000000   0.0000000
 NQMom=    0.0000000   0.0000000   0.0000000   0.0000000   0.0000000   0.0000000   0.0000000   0.0000000   0.0000000   2.0440000
 NMagM=    0.0000000   2.7928460   2.7928460   2.7928460   2.7928460   2.7928460   0.0000000   0.0000000   0.0000000   0.4037610
 AtZNuc=   6.0000000   1.0000000   1.0000000   1.0000000   1.0000000   1.0000000   6.0000000   6.0000000   6.0000000   7.0000000

  Atom        11          12          13          14          15          16          17          18          19          20
 IAtWgt=          16          16          12           1           1           1           1           1           1          14
 AtmWgt=  15.9949146  15.9949146  12.0000000   1.0078250   1.0078250   1.0078250   1.0078250   1.0078250   1.0078250  14.0030740
 NucSpn=           0           0           0           1           1           1           1           1           1           2
 AtZEff=   0.0000000   0.0000000   0.0000000   0.0000000   0.0000000   0.0000000   0.0000000   0.0000000   0.0000000   0.0000000
 NQMom=    0.0000000   0.0000000   0.0000000   0.0000000   0.0000000   0.0000000   0.0000000   0.0000000   0.0000000   2.0440000
 NMagM=    0.0000000   0.0000000   0.0000000   2.7928460   2.7928460   2.7928460   2.7928460   2.7928460   2.7928460   0.4037610
 AtZNuc=   8.0000000   8.0000000   6.0000000   1.0000000   1.0000000   1.0000000   1.0000000   1.0000000   1.0000000   7.0000000

  Atom        21          22          23
 IAtWgt=          16           1           1
 AtmWgt=  15.9949146   1.0078250   1.0078250
 NucSpn=           0           1           1
 AtZEff=   0.0000000   0.0000000   0.0000000
 NQMom=    0.0000000   0.0000000   0.0000000
 NMagM=    0.0000000   2.7928460   2.7928460
 AtZNuc=   8.0000000   1.0000000   1.0000000
 Leave Link  101 at Thu Mar 12 19:06:31 2020, MaxMem=    33554432 cpu:         0.0
 (Enter /usr/local/gaussian09d01/g09/l202.exe)
                          Input orientation:                          
 ---------------------------------------------------------------------
 Center     Atomic      Atomic             Coordinates (Angstroms)
 Number     Number       Type             X           Y           Z
 ---------------------------------------------------------------------
      1          6           0        3.824483   -1.142195    1.172254
      2          1           0        4.799113   -1.629614    1.173809
      3          1           0        3.053614   -1.916313    1.160805
      4          1           0       -2.540416   -2.844982   -1.014303
      5          1           0        3.759606   -0.532918    2.078246
      6          1           0        3.765324   -0.521541    0.273951
      7          6           0       -2.401542   -0.705499    0.492563
      8          6           0       -1.333656    0.193207    1.141271
      9          6           0        0.021967   -0.470338    0.950187
     10          7           0       -1.303305    1.529149    0.515945
     11          8           0        0.155929   -1.611463    0.516920
     12          8           0        1.024922    0.353393    1.298656
     13          6           0       -2.121889   -0.918337   -0.967113
     14          1           0       -3.392299   -0.247402    0.596497
     15          1           0       -2.419177   -1.669900    1.004436
     16          1           0       -1.526304    0.239474    2.221388
     17          1           0       -1.503902    0.960751   -1.170400
     18          1           0       -0.410560    1.997532    0.666151
     19          1           0        1.924402   -0.039926    1.230819
     20          7           0       -1.700457    0.069239   -1.694920
     21          8           0       -2.336855   -2.071648   -1.575178
     22          1           0       -2.071901    2.128557    0.807834
     23          1           0       -1.458594   -0.091636   -2.982329
 ---------------------------------------------------------------------
                    Distance matrix (angstroms):
                    1          2          3          4          5
     1  C    0.000000
     2  H    1.089717   0.000000
     3  H    1.092532   1.768935   0.000000
     4  H    6.942078   7.754589   6.073442   0.000000
     5  H    1.093732   1.761058   1.803858   7.389167   0.000000
     6  H    1.093462   1.762467   1.799563   6.842538   1.804340
     7  C    6.278222   7.291606   5.627730   2.620556   6.364270
     8  C    5.328288   6.398015   4.868120   3.915783   5.229388
     9  C    3.867794   4.920879   3.365425   4.007987   3.904662
    10  N    5.819023   6.902903   5.591940   4.796365   5.685594
    11  O    3.756056   4.689455   2.983974   3.337138   4.072774
    12  O    3.176523   4.265257   3.047319   5.318930   2.978557
    13  C    6.323476   7.279405   5.684173   1.972143   6.634362
    14  H    7.294799   8.327247   6.682328   3.172979   7.309368
    15  H    6.268167   7.220389   5.480567   2.338979   6.373630
    16  H    5.624999   6.678459   5.171838   4.583883   5.343962
    17  H    6.188869   7.206477   5.872220   3.947446   6.363118
    18  H    5.296189   6.368250   5.250083   5.550689   5.078138
    19  H    2.197438   3.285472   2.191084   5.730926   2.080661
    20  N    6.341389   7.304801   5.890567   3.108288   6.664208
    21  O    6.809871   7.659919   6.047056   0.976762   7.272004
    22  H    6.752626   7.840192   6.538842   5.317497   6.534820
    23  H    6.802583   7.667970   6.391794   3.553080   7.282429
                    6          7          8          9         10
     6  H    0.000000
     7  C    6.173481   0.000000
     8  C    5.221370   1.539115   0.000000
     9  C    3.804292   2.477522   1.521354   0.000000
    10  N    5.473106   2.490045   1.475362   2.437797   0.000000
    11  O    3.778186   2.713305   2.421882   1.227938   3.463063
    12  O    3.053740   3.675826   2.369245   1.343831   2.723175
    13  C    6.029674   1.501385   2.510403   2.910818   2.976530
    14  H    7.170129   1.096474   2.174610   3.439769   2.743450
    15  H    6.332486   1.091969   2.160613   2.720492   3.423114
    16  H    5.689726   2.155888   1.098138   2.125307   2.149773
    17  H    5.661103   2.519443   2.441706   2.978788   1.790831
    18  H    4.892602   3.361625   2.081690   2.521535   1.019283
    19  H    2.129916   4.438671   3.267616   1.970601   3.659389
    20  N    5.839541   2.424215   2.862497   3.202261   2.678990
    21  O    6.561912   2.479133   3.676285   3.808636   4.290310
    22  H    6.432825   2.870528   2.098038   3.340478   1.017462
    23  H    6.170697   3.652513   4.135313   4.219023   3.858624
                   11         12         13         14         15
    11  O    0.000000
    12  O    2.286245   0.000000
    13  C    2.805572   4.080861   0.000000
    14  H    3.802225   4.512852   2.123434   0.000000
    15  H    2.621499   4.005259   2.130782   1.771124   0.000000
    16  H    3.026729   2.715358   3.444094   2.521757   2.433907
    17  H    3.495479   3.586095   1.988519   2.854401   3.533832
    18  H    3.656231   2.272415   3.754796   3.733008   4.195121
    19  H    2.471210   0.984055   4.687748   5.358426   4.644862
    20  N    3.341132   4.058317   1.297157   2.865865   3.290545
    21  O    3.286734   5.043936   1.321393   3.026220   2.612009
    22  H    4.362981   3.603113   3.526542   2.726407   3.819362
    23  H    4.142620   4.969179   2.276948   4.070807   4.394080
                   16         17         18         19         20
    16  H    0.000000
    17  H    3.467704   0.000000
    18  H    2.598926   2.375549   0.000000
    19  H    3.600926   4.303542   3.149942   0.000000
    20  N    3.923872   1.052876   3.310106   4.659557   0.000000
    21  O    4.517986   3.170662   5.029155   5.491796   2.236680
    22  H    2.421661   2.366391   1.672511   4.566362   3.262290
    23  H    5.214680   2.095866   4.332944   5.403513   1.319773
                   21         22         23
    21  O    0.000000
    22  H    4.836390   0.000000
    23  H    2.582995   4.435170   0.000000
 Stoichiometry    C5H13N2O3(1+)
 Framework group  C1[X(C5H13N2O3)]
 Deg. of freedom    63
 Full point group                 C1      NOp   1
 Largest Abelian subgroup         C1      NOp   1
 Largest concise Abelian subgroup C1      NOp   1
                         Standard orientation:                         
 ---------------------------------------------------------------------
 Center     Atomic      Atomic             Coordinates (Angstroms)
 Number     Number       Type             X           Y           Z
 ---------------------------------------------------------------------
      1          6           0       -4.367375   -0.951467    0.318095
      2          1           0       -5.270358   -1.556919    0.392477
      3          1           0       -3.653444   -1.476953   -0.320493
      4          1           0        2.343831   -2.231160   -0.912579
      5          1           0       -4.651490    0.011602   -0.115526
      6          1           0       -3.967152   -0.827093    1.328051
      7          6           0        1.647297    0.294201   -0.981175
      8          6           0        0.415795    1.169678   -0.688228
      9          6           0       -0.766265    0.249210   -0.423671
     10          7           0        0.631550    2.021724    0.496745
     11          8           0       -0.728575   -0.963458   -0.613010
     12          8           0       -1.823288    0.931444    0.048705
     13          6           0        1.945981   -0.628195    0.165181
     14          1           0        2.524761    0.927002   -1.159714
     15          1           0        1.464489   -0.293302   -1.883293
     16          1           0        0.181176    1.753624   -1.588155
     17          1           0        1.459372    0.778064    1.484216
     18          1           0       -0.249135    2.325584    0.910266
     19          1           0       -2.629967    0.388858    0.201134
     20          7           0        1.838260   -0.199212    1.384601
     21          8           0        2.372868   -1.866856   -0.006763
     22          1           0        1.232394    2.822196    0.313827
     23          1           0        2.106212   -0.988697    2.407692
 ---------------------------------------------------------------------
 Rotational constants (GHZ):      1.7936509      0.7161316      0.6057504
 Leave Link  202 at Thu Mar 12 19:06:31 2020, MaxMem=    33554432 cpu:         0.0
 (Enter /usr/local/gaussian09d01/g09/l301.exe)
 Standard basis: 6-31G (6D, 7F)
 Ernie: Thresh=  0.10000D-02 Tol=  0.10000D-05 Strict=F.
 There are   116 symmetry adapted cartesian basis functions of A   symmetry.
 There are   116 symmetry adapted basis functions of A   symmetry.
   116 basis functions,   272 primitive gaussians,   116 cartesian basis functions
    40 alpha electrons       40 beta electrons
       nuclear repulsion energy       585.0170850484 Hartrees.
 IExCor= 4336 DFT=T Ex+Corr=M062X ExCW=0 ScaHFX=  0.540000
 ScaDFX=  1.000000  1.000000  1.000000  1.000000 ScalE2=  1.000000  1.000000
 IRadAn=      0 IRanWt=     -1 IRanGd=            0 ICorTp=0 IEmpDi=  4
 NAtoms=   23 NActive=   23 NUniq=   23 SFac= 1.00D+00 NAtFMM=   60 NAOKFM=F Big=F
 Integral buffers will be    131072 words long.
 Raffenetti 2 integral format.
 Two-electron integral symmetry is turned on.
 Leave Link  301 at Thu Mar 12 19:06:31 2020, MaxMem=    33554432 cpu:         0.0
 (Enter /usr/local/gaussian09d01/g09/l302.exe)
 NPDir=0 NMtPBC=     1 NCelOv=     1 NCel=       1 NClECP=     1 NCelD=      1
         NCelK=      1 NCelE2=     1 NClLst=     1 CellRange=     0.0.
 One-electron integrals computed using PRISM.
 NBasis=   116 RedAO= T EigKep=  3.56D-03  NBF=   116
 NBsUse=   116 1.00D-06 EigRej= -1.00D+00 NBFU=   116
 Precomputing XC quadrature grid using
 IXCGrd= 4 IRadAn=           0 IRanWt=          -1 IRanGd=           0 AccXCQ= 0.00D+00.
 Generated NRdTot=       0 NPtTot=           0 NUsed=           0 NTot=          32
 NSgBfM=   115   115   115   115   115 MxSgAt=    23 MxSgA2=    23.
 Leave Link  302 at Thu Mar 12 19:06:31 2020, MaxMem=    33554432 cpu:         0.3
 (Enter /usr/local/gaussian09d01/g09/l303.exe)
 DipDrv:  MaxL=1.
 Leave Link  303 at Thu Mar 12 19:06:31 2020, MaxMem=    33554432 cpu:         0.0
 (Enter /usr/local/gaussian09d01/g09/l401.exe)
 ExpMin= 1.61D-01 ExpMax= 5.48D+03 ExpMxC= 8.25D+02 IAcc=1 IRadAn=         1 AccDes= 0.00D+00
 Harris functional with IExCor= 1009 and IRadAn=       1 diagonalized for initial guess.
 HarFok:  IExCor= 1009 AccDes= 0.00D+00 IRadAn=         1 IDoV= 1 UseB2=F ITyADJ=14
 ICtDFT=  3500011 ScaDFX=  1.000000  1.000000  1.000000  1.000000
 FoFCou: FMM=F IPFlag=           0 FMFlag=      100000 FMFlg1=           0
         NFxFlg=           0 DoJE=T BraDBF=F KetDBF=T FulRan=T
         wScrn=  0.000000 ICntrl=     500 IOpCl=  0 I1Cent=   200000004 NGrid=           0
         NMat0=    1 NMatS0=      1 NMatT0=    0 NMatD0=    1 NMtDS0=    0 NMtDT0=    0
 Petite list used in FoFCou.
 Harris En= -532.700957121155    
 JPrj=0 DoOrth=F DoCkMO=F.
 Leave Link  401 at Thu Mar 12 19:06:32 2020, MaxMem=    33554432 cpu:         0.9
 (Enter /usr/local/gaussian09d01/g09/l502.exe)
 Closed shell SCF:
 Using DIIS extrapolation, IDIIS=  1040.
 Integral symmetry usage will be decided dynamically.
 Keep R1 ints in memory in canonical form, NReq=24030401.
 IVT=       60528 IEndB=       60528 NGot=    33554432 MDV=    10465614
 LenX=    10465614 LenY=    10451717
 Requested convergence on RMS density matrix=1.00D-08 within 128 cycles.
 Requested convergence on MAX density matrix=1.00D-06.
 Requested convergence on             energy=1.00D-06.
 No special actions if energy rises.
 FoFCou: FMM=F IPFlag=           0 FMFlag=           0 FMFlg1=           0
         NFxFlg=           0 DoJE=F BraDBF=F KetDBF=F FulRan=T
         wScrn=  0.000000 ICntrl=     600 IOpCl=  0 I1Cent=           0 NGrid=           0
         NMat0=    1 NMatS0=   6786 NMatT0=    0 NMatD0=    1 NMtDS0=    0 NMtDT0=    0
 Symmetry not used in FoFCou.
 Integral accuracy reduced to 1.0D-05 until final iterations.

 Cycle   1  Pass 0  IDiag  1:
 E= -532.615308499787    
 DIIS: error= 5.39D-02 at cycle   1 NSaved=   1.
 NSaved= 1 IEnMin= 1 EnMin= -532.615308499787     IErMin= 1 ErrMin= 5.39D-02
 ErrMax= 5.39D-02  0.00D+00 EMaxC= 1.00D-01 BMatC= 3.09D-01 BMatP= 3.09D-01
 IDIUse=3 WtCom= 4.61D-01 WtEn= 5.39D-01
 Coeff-Com:  0.100D+01
 Coeff-En:   0.100D+01
 Coeff:      0.100D+01
 Gap=     0.306 Goal=   None    Shift=    0.000
 GapD=    0.306 DampG=1.000 DampE=0.500 DampFc=0.5000 IDamp=-1.
 Damping current iteration by 5.00D-01
 RMSDP=8.35D-03 MaxDP=1.65D-01              OVMax= 1.71D-01

 Cycle   2  Pass 0  IDiag  1:
 E= -532.739065652547     Delta-E=       -0.123757152760 Rises=F Damp=T
 DIIS: error= 1.00D-02 at cycle   2 NSaved=   2.
 NSaved= 2 IEnMin= 2 EnMin= -532.739065652547     IErMin= 2 ErrMin= 1.00D-02
 ErrMax= 1.00D-02  0.00D+00 EMaxC= 1.00D-01 BMatC= 1.89D-02 BMatP= 3.09D-01
 IDIUse=3 WtCom= 9.00D-01 WtEn= 1.00D-01
 Coeff-Com:  0.340D-01 0.966D+00
 Coeff-En:   0.369D-01 0.963D+00
 Coeff:      0.343D-01 0.966D+00
 Gap=     0.366 Goal=   None    Shift=    0.000
 RMSDP=2.14D-03 MaxDP=3.46D-02 DE=-1.24D-01 OVMax= 1.10D-01

 Cycle   3  Pass 0  IDiag  1:
 E= -532.867163871079     Delta-E=       -0.128098218532 Rises=F Damp=F
 DIIS: error= 1.23D-02 at cycle   3 NSaved=   3.
 NSaved= 3 IEnMin= 3 EnMin= -532.867163871079     IErMin= 2 ErrMin= 1.00D-02
 ErrMax= 1.23D-02  0.00D+00 EMaxC= 1.00D-01 BMatC= 1.52D-02 BMatP= 1.89D-02
 IDIUse=3 WtCom= 8.77D-01 WtEn= 1.23D-01
 Coeff-Com: -0.234D-01 0.476D+00 0.547D+00
 Coeff-En:   0.000D+00 0.000D+00 0.100D+01
 Coeff:     -0.205D-01 0.417D+00 0.603D+00
 Gap=     0.339 Goal=   None    Shift=    0.000
 RMSDP=1.41D-03 MaxDP=3.65D-02 DE=-1.28D-01 OVMax= 5.62D-02

 Cycle   4  Pass 0  IDiag  1:
 E= -532.876929855786     Delta-E=       -0.009765984707 Rises=F Damp=F
 DIIS: error= 7.88D-03 at cycle   4 NSaved=   4.
 NSaved= 4 IEnMin= 4 EnMin= -532.876929855786     IErMin= 4 ErrMin= 7.88D-03
 ErrMax= 7.88D-03  0.00D+00 EMaxC= 1.00D-01 BMatC= 3.80D-03 BMatP= 1.52D-02
 IDIUse=3 WtCom= 9.21D-01 WtEn= 7.88D-02
 Coeff-Com: -0.661D-02 0.337D-01 0.339D+00 0.634D+00
 Coeff-En:   0.000D+00 0.000D+00 0.200D+00 0.800D+00
 Coeff:     -0.609D-02 0.311D-01 0.328D+00 0.647D+00
 Gap=     0.338 Goal=   None    Shift=    0.000
 RMSDP=5.34D-04 MaxDP=1.15D-02 DE=-9.77D-03 OVMax= 1.81D-02

 Cycle   5  Pass 0  IDiag  1:
 E= -532.879675534058     Delta-E=       -0.002745678272 Rises=F Damp=F
 DIIS: error= 1.05D-03 at cycle   5 NSaved=   5.
 NSaved= 5 IEnMin= 5 EnMin= -532.879675534058     IErMin= 5 ErrMin= 1.05D-03
 ErrMax= 1.05D-03  0.00D+00 EMaxC= 1.00D-01 BMatC= 1.62D-04 BMatP= 3.80D-03
 IDIUse=3 WtCom= 9.90D-01 WtEn= 1.05D-02
 Coeff-Com: -0.108D-02-0.739D-02 0.145D+00 0.335D+00 0.529D+00
 Coeff-En:   0.000D+00 0.000D+00 0.000D+00 0.000D+00 0.100D+01
 Coeff:     -0.107D-02-0.731D-02 0.143D+00 0.331D+00 0.534D+00
 Gap=     0.335 Goal=   None    Shift=    0.000
 RMSDP=1.06D-04 MaxDP=2.11D-03 DE=-2.75D-03 OVMax= 3.56D-03

 Cycle   6  Pass 0  IDiag  1:
 E= -532.879817083079     Delta-E=       -0.000141549021 Rises=F Damp=F
 DIIS: error= 2.90D-04 at cycle   6 NSaved=   6.
 NSaved= 6 IEnMin= 6 EnMin= -532.879817083079     IErMin= 6 ErrMin= 2.90D-04
 ErrMax= 2.90D-04  0.00D+00 EMaxC= 1.00D-01 BMatC= 4.33D-06 BMatP= 1.62D-04
 IDIUse=3 WtCom= 9.97D-01 WtEn= 2.90D-03
 Coeff-Com:  0.502D-03-0.372D-02 0.174D-01 0.330D-01 0.137D+00 0.816D+00
 Coeff-En:   0.000D+00 0.000D+00 0.000D+00 0.000D+00 0.000D+00 0.100D+01
 Coeff:      0.500D-03-0.371D-02 0.174D-01 0.329D-01 0.136D+00 0.817D+00
 Gap=     0.335 Goal=   None    Shift=    0.000
 RMSDP=2.68D-05 MaxDP=4.06D-04 DE=-1.42D-04 OVMax= 5.61D-04

 Cycle   7  Pass 0  IDiag  1:
 E= -532.879821079290     Delta-E=       -0.000003996211 Rises=F Damp=F
 DIIS: error= 9.92D-05 at cycle   7 NSaved=   7.
 NSaved= 7 IEnMin= 7 EnMin= -532.879821079290     IErMin= 7 ErrMin= 9.92D-05
 ErrMax= 9.92D-05  0.00D+00 EMaxC= 1.00D-01 BMatC= 6.51D-07 BMatP= 4.33D-06
 IDIUse=1 WtCom= 1.00D+00 WtEn= 0.00D+00
 Coeff-Com:  0.434D-03-0.710D-03-0.123D-01-0.351D-01-0.132D-01 0.312D+00
 Coeff-Com:  0.748D+00
 Coeff:      0.434D-03-0.710D-03-0.123D-01-0.351D-01-0.132D-01 0.312D+00
 Coeff:      0.748D+00
 Gap=     0.335 Goal=   None    Shift=    0.000
 RMSDP=1.27D-05 MaxDP=2.03D-04 DE=-4.00D-06 OVMax= 2.99D-04

 Cycle   8  Pass 0  IDiag  1:
 E= -532.879821764101     Delta-E=       -0.000000684811 Rises=F Damp=F
 DIIS: error= 2.96D-05 at cycle   8 NSaved=   8.
 NSaved= 8 IEnMin= 8 EnMin= -532.879821764101     IErMin= 8 ErrMin= 2.96D-05
 ErrMax= 2.96D-05  0.00D+00 EMaxC= 1.00D-01 BMatC= 8.91D-08 BMatP= 6.51D-07
 IDIUse=1 WtCom= 1.00D+00 WtEn= 0.00D+00
 Coeff-Com:  0.146D-03 0.448D-04-0.646D-02-0.180D-01-0.182D-01 0.407D-01
 Coeff-Com:  0.324D+00 0.678D+00
 Coeff:      0.146D-03 0.448D-04-0.646D-02-0.180D-01-0.182D-01 0.407D-01
 Coeff:      0.324D+00 0.678D+00
 Gap=     0.335 Goal=   None    Shift=    0.000
 RMSDP=3.96D-06 MaxDP=7.94D-05 DE=-6.85D-07 OVMax= 1.26D-04

 Initial convergence to 1.0D-05 achieved.  Increase integral accuracy.
 Cycle   9  Pass 1  IDiag  1:
 E= -532.880007696799     Delta-E=       -0.000185932698 Rises=F Damp=F
 DIIS: error= 1.35D-04 at cycle   1 NSaved=   1.
 NSaved= 1 IEnMin= 1 EnMin= -532.880007696799     IErMin= 1 ErrMin= 1.35D-04
 ErrMax= 1.35D-04  0.00D+00 EMaxC= 1.00D-01 BMatC= 1.82D-06 BMatP= 1.82D-06
 IDIUse=3 WtCom= 9.99D-01 WtEn= 1.35D-03
 Coeff-Com:  0.100D+01
 Coeff-En:   0.100D+01
 Coeff:      0.100D+01
 Gap=     0.335 Goal=   None    Shift=    0.000
 RMSDP=3.96D-06 MaxDP=7.94D-05 DE=-1.86D-04 OVMax= 1.93D-04

 Cycle  10  Pass 1  IDiag  1:
 E= -532.880009286011     Delta-E=       -0.000001589211 Rises=F Damp=F
 DIIS: error= 7.06D-05 at cycle   2 NSaved=   2.
 NSaved= 2 IEnMin= 2 EnMin= -532.880009286011     IErMin= 2 ErrMin= 7.06D-05
 ErrMax= 7.06D-05  0.00D+00 EMaxC= 1.00D-01 BMatC= 4.33D-07 BMatP= 1.82D-06
 IDIUse=1 WtCom= 1.00D+00 WtEn= 0.00D+00
 Coeff-Com:  0.261D+00 0.739D+00
 Coeff:      0.261D+00 0.739D+00
 Gap=     0.335 Goal=   None    Shift=    0.000
 RMSDP=7.66D-06 MaxDP=1.70D-04 DE=-1.59D-06 OVMax= 2.04D-04

 Cycle  11  Pass 1  IDiag  1:
 E= -532.880009575891     Delta-E=       -0.000000289881 Rises=F Damp=F
 DIIS: error= 3.48D-05 at cycle   3 NSaved=   3.
 NSaved= 3 IEnMin= 3 EnMin= -532.880009575891     IErMin= 3 ErrMin= 3.48D-05
 ErrMax= 3.48D-05  0.00D+00 EMaxC= 1.00D-01 BMatC= 1.67D-07 BMatP= 4.33D-07
 IDIUse=1 WtCom= 1.00D+00 WtEn= 0.00D+00
 Coeff-Com: -0.261D-01 0.372D+00 0.655D+00
 Coeff:     -0.261D-01 0.372D+00 0.655D+00
 Gap=     0.335 Goal=   None    Shift=    0.000
 RMSDP=3.70D-06 MaxDP=8.77D-05 DE=-2.90D-07 OVMax= 1.27D-04

 Cycle  12  Pass 1  IDiag  1:
 E= -532.880009710358     Delta-E=       -0.000000134467 Rises=F Damp=F
 DIIS: error= 1.02D-05 at cycle   4 NSaved=   4.
 NSaved= 4 IEnMin= 4 EnMin= -532.880009710358     IErMin= 4 ErrMin= 1.02D-05
 ErrMax= 1.02D-05  0.00D+00 EMaxC= 1.00D-01 BMatC= 1.47D-08 BMatP= 1.67D-07
 IDIUse=1 WtCom= 1.00D+00 WtEn= 0.00D+00
 Coeff-Com: -0.309D-01 0.155D+00 0.348D+00 0.528D+00
 Coeff:     -0.309D-01 0.155D+00 0.348D+00 0.528D+00
 Gap=     0.335 Goal=   None    Shift=    0.000
 RMSDP=9.13D-07 MaxDP=2.02D-05 DE=-1.34D-07 OVMax= 3.67D-05

 Cycle  13  Pass 1  IDiag  1:
 E= -532.880009723229     Delta-E=       -0.000000012870 Rises=F Damp=F
 DIIS: error= 2.33D-06 at cycle   5 NSaved=   5.
 NSaved= 5 IEnMin= 5 EnMin= -532.880009723229     IErMin= 5 ErrMin= 2.33D-06
 ErrMax= 2.33D-06  0.00D+00 EMaxC= 1.00D-01 BMatC= 2.97D-10 BMatP= 1.47D-08
 IDIUse=1 WtCom= 1.00D+00 WtEn= 0.00D+00
 Coeff-Com: -0.599D-02 0.104D-01 0.363D-01 0.123D+00 0.837D+00
 Coeff:     -0.599D-02 0.104D-01 0.363D-01 0.123D+00 0.837D+00
 Gap=     0.335 Goal=   None    Shift=    0.000
 RMSDP=2.91D-07 MaxDP=4.87D-06 DE=-1.29D-08 OVMax= 6.84D-06

 Cycle  14  Pass 1  IDiag  1:
 E= -532.880009723427     Delta-E=       -0.000000000198 Rises=F Damp=F
 DIIS: error= 1.51D-06 at cycle   6 NSaved=   6.
 NSaved= 6 IEnMin= 6 EnMin= -532.880009723427     IErMin= 6 ErrMin= 1.51D-06
 ErrMax= 1.51D-06  0.00D+00 EMaxC= 1.00D-01 BMatC= 1.87D-10 BMatP= 2.97D-10
 IDIUse=1 WtCom= 1.00D+00 WtEn= 0.00D+00
 Coeff-Com:  0.123D-02-0.159D-01-0.293D-01-0.224D-02 0.495D+00 0.551D+00
 Coeff:      0.123D-02-0.159D-01-0.293D-01-0.224D-02 0.495D+00 0.551D+00
 Gap=     0.335 Goal=   None    Shift=    0.000
 RMSDP=1.10D-07 MaxDP=3.04D-06 DE=-1.98D-10 OVMax= 5.47D-06

 Cycle  15  Pass 1  IDiag  1:
 E= -532.880009723575     Delta-E=       -0.000000000148 Rises=F Damp=F
 DIIS: error= 3.90D-07 at cycle   7 NSaved=   7.
 NSaved= 7 IEnMin= 7 EnMin= -532.880009723575     IErMin= 7 ErrMin= 3.90D-07
 ErrMax= 3.90D-07  0.00D+00 EMaxC= 1.00D-01 BMatC= 8.35D-12 BMatP= 1.87D-10
 IDIUse=1 WtCom= 1.00D+00 WtEn= 0.00D+00
 Coeff-Com:  0.861D-03-0.645D-02-0.137D-01-0.864D-02 0.104D+00 0.220D+00
 Coeff-Com:  0.704D+00
 Coeff:      0.861D-03-0.645D-02-0.137D-01-0.864D-02 0.104D+00 0.220D+00
 Coeff:      0.704D+00
 Gap=     0.335 Goal=   None    Shift=    0.000
 RMSDP=4.51D-08 MaxDP=1.03D-06 DE=-1.48D-10 OVMax= 1.01D-06

 Cycle  16  Pass 1  IDiag  1:
 E= -532.880009723598     Delta-E=       -0.000000000023 Rises=F Damp=F
 DIIS: error= 1.10D-07 at cycle   8 NSaved=   8.
 NSaved= 8 IEnMin= 8 EnMin= -532.880009723598     IErMin= 8 ErrMin= 1.10D-07
 ErrMax= 1.10D-07  0.00D+00 EMaxC= 1.00D-01 BMatC= 1.90D-12 BMatP= 8.35D-12
 IDIUse=1 WtCom= 1.00D+00 WtEn= 0.00D+00
 Coeff-Com:  0.226D-03-0.433D-03-0.193D-02-0.379D-02-0.430D-01 0.210D-01
 Coeff-Com:  0.375D+00 0.653D+00
 Coeff:      0.226D-03-0.433D-03-0.193D-02-0.379D-02-0.430D-01 0.210D-01
 Coeff:      0.375D+00 0.653D+00
 Gap=     0.335 Goal=   None    Shift=    0.000
 RMSDP=1.48D-08 MaxDP=3.65D-07 DE=-2.34D-11 OVMax= 4.14D-07

 Cycle  17  Pass 1  IDiag  1:
 E= -532.880009723583     Delta-E=        0.000000000015 Rises=F Damp=F
 DIIS: error= 3.16D-08 at cycle   9 NSaved=   9.
 NSaved= 9 IEnMin= 8 EnMin= -532.880009723598     IErMin= 9 ErrMin= 3.16D-08
 ErrMax= 3.16D-08  0.00D+00 EMaxC= 1.00D-01 BMatC= 6.12D-14 BMatP= 1.90D-12
 IDIUse=1 WtCom= 1.00D+00 WtEn= 0.00D+00
 Coeff-Com: -0.429D-04 0.484D-03 0.941D-03 0.395D-03-0.151D-01-0.126D-01
 Coeff-Com: -0.254D-01 0.957D-01 0.956D+00
 Coeff:     -0.429D-04 0.484D-03 0.941D-03 0.395D-03-0.151D-01-0.126D-01
 Coeff:     -0.254D-01 0.957D-01 0.956D+00
 Gap=     0.335 Goal=   None    Shift=    0.000
 RMSDP=5.39D-09 MaxDP=1.01D-07 DE= 1.55D-11 OVMax= 2.41D-07

 SCF Done:  E(RM062X) =  -532.880009724     A.U. after   17 cycles
            NFock= 17  Conv=0.54D-08     -V/T= 2.0060
 KE= 5.296815402950D+02 PE=-2.402092643775D+03 EE= 7.545140087076D+02
 Leave Link  502 at Thu Mar 12 19:07:26 2020, MaxMem=    33554432 cpu:        54.4
 (Enter /usr/local/gaussian09d01/g09/l601.exe)
 Copying SCF densities to generalized density rwf, IOpCl= 0 IROHF=0.

 **********************************************************************

            Population analysis using the SCF density.

 **********************************************************************

 Orbital symmetries:
       Occupied  (A) (A) (A) (A) (A) (A) (A) (A) (A) (A) (A) (A)
                 (A) (A) (A) (A) (A) (A) (A) (A) (A) (A) (A) (A)
                 (A) (A) (A) (A) (A) (A) (A) (A) (A) (A) (A) (A)
                 (A) (A) (A) (A)
       Virtual   (A) (A) (A) (A) (A) (A) (A) (A) (A) (A) (A) (A)
                 (A) (A) (A) (A) (A) (A) (A) (A) (A) (A) (A) (A)
                 (A) (A) (A) (A) (A) (A) (A) (A) (A) (A) (A) (A)
                 (A) (A) (A) (A) (A) (A) (A) (A) (A) (A) (A) (A)
                 (A) (A) (A) (A) (A) (A) (A) (A) (A) (A) (A) (A)
                 (A) (A) (A) (A) (A) (A) (A) (A) (A) (A) (A) (A)
                 (A) (A) (A) (A)
 The electronic state is 1-A.
 Alpha  occ. eigenvalues --  -19.88003 -19.83939 -19.80394 -14.99939 -14.92859
 Alpha  occ. eigenvalues --  -10.89025 -10.86044 -10.77789 -10.75316 -10.63030
 Alpha  occ. eigenvalues --   -1.42380  -1.40134  -1.31118  -1.23915  -1.18055
 Alpha  occ. eigenvalues --   -1.05815  -0.96374  -0.92572  -0.89951  -0.85888
 Alpha  occ. eigenvalues --   -0.80710  -0.78897  -0.76348  -0.73591  -0.73126
 Alpha  occ. eigenvalues --   -0.72295  -0.70226  -0.68886  -0.65985  -0.64478
 Alpha  occ. eigenvalues --   -0.63240  -0.61576  -0.60533  -0.57043  -0.56824
 Alpha  occ. eigenvalues --   -0.55895  -0.55620  -0.53952  -0.51453  -0.49144
 Alpha virt. eigenvalues --   -0.15648  -0.12374  -0.11920  -0.06439  -0.02412
 Alpha virt. eigenvalues --   -0.00488   0.01112   0.01875   0.04814   0.05231
 Alpha virt. eigenvalues --    0.06818   0.07204   0.07916   0.10898   0.11213
 Alpha virt. eigenvalues --    0.11328   0.12376   0.13139   0.16276   0.18874
 Alpha virt. eigenvalues --    0.20978   0.24267   0.28256   0.39017   0.42291
 Alpha virt. eigenvalues --    0.43485   0.45904   0.46317   0.48144   0.48293
 Alpha virt. eigenvalues --    0.50010   0.52012   0.52120   0.55501   0.58346
 Alpha virt. eigenvalues --    0.58504   0.59062   0.62291   0.64399   0.65370
 Alpha virt. eigenvalues --    0.68024   0.68709   0.71203   0.74997   0.75448
 Alpha virt. eigenvalues --    0.77173   0.78899   0.80996   0.83810   0.84344
 Alpha virt. eigenvalues --    0.86281   0.87478   0.87950   0.88289   0.91442
 Alpha virt. eigenvalues --    0.92291   0.92854   0.94624   0.95234   0.96728
 Alpha virt. eigenvalues --    1.02395   1.04114   1.08998   1.10906   1.12416
 Alpha virt. eigenvalues --    1.14685   1.19275   1.28715   1.29874   1.33977
 Alpha virt. eigenvalues --    1.41648   1.54011   1.63348   1.75310   1.76715
 Alpha virt. eigenvalues --    1.86731
          Condensed to atoms (all electrons):
               1          2          3          4          5          6
     1  C    5.189181   0.375463   0.371728   0.000000   0.370243   0.370788
     2  H    0.375463   0.469403  -0.017937   0.000000  -0.019830  -0.020290
     3  H    0.371728  -0.017937   0.520685   0.000000  -0.029518  -0.030127
     4  H    0.000000   0.000000   0.000000   0.292438   0.000000   0.000000
     5  H    0.370243  -0.019830  -0.029518   0.000000   0.538067  -0.032249
     6  H    0.370788  -0.020290  -0.030127   0.000000  -0.032249   0.545683
     7  C    0.000000   0.000000  -0.000001  -0.005801   0.000000   0.000000
     8  C   -0.000004   0.000001   0.000083   0.000140  -0.000011  -0.000007
     9  C    0.000268   0.000037   0.001484   0.000048  -0.000153  -0.000130
    10  N    0.000000   0.000000  -0.000001   0.000026   0.000000   0.000000
    11  O   -0.001312   0.000015   0.003289   0.000356   0.000043   0.000016
    12  O   -0.005239   0.000175  -0.001622   0.000000  -0.000762  -0.000632
    13  C    0.000000   0.000000   0.000000  -0.015627   0.000000   0.000000
    14  H    0.000000   0.000000   0.000000   0.000006   0.000000   0.000000
    15  H    0.000000   0.000000   0.000000   0.003614   0.000000   0.000000
    16  H    0.000001   0.000000  -0.000002   0.000003   0.000000   0.000000
    17  H    0.000000   0.000000   0.000000  -0.000034   0.000000   0.000000
    18  H   -0.000001   0.000000   0.000000   0.000000   0.000000   0.000000
    19  H    0.026931  -0.000938   0.002070   0.000000   0.005183   0.004706
    20  N    0.000000   0.000000   0.000000   0.005734   0.000000   0.000000
    21  O    0.000000   0.000000   0.000000   0.256818   0.000000   0.000000
    22  H    0.000000   0.000000   0.000000  -0.000001   0.000000   0.000000
    23  H    0.000000   0.000000   0.000000   0.000034   0.000000   0.000000
               7          8          9         10         11         12
     1  C    0.000000  -0.000004   0.000268   0.000000  -0.001312  -0.005239
     2  H    0.000000   0.000001   0.000037   0.000000   0.000015   0.000175
     3  H   -0.000001   0.000083   0.001484  -0.000001   0.003289  -0.001622
     4  H   -0.005801   0.000140   0.000048   0.000026   0.000356   0.000000
     5  H    0.000000  -0.000011  -0.000153   0.000000   0.000043  -0.000762
     6  H    0.000000  -0.000007  -0.000130   0.000000   0.000016  -0.000632
     7  C    5.424172   0.218109  -0.047995  -0.075185   0.007922   0.005359
     8  C    0.218109   5.569527   0.151605   0.192996  -0.124273  -0.148280
     9  C   -0.047995   0.151605   4.753693  -0.049266   0.495605   0.195045
    10  N   -0.075185   0.192996  -0.049266   7.095485   0.002197   0.001797
    11  O    0.007922  -0.124273   0.495605   0.002197   8.123891  -0.108491
    12  O    0.005359  -0.148280   0.195045   0.001797  -0.108491   8.418271
    13  C    0.266934  -0.016389  -0.007735  -0.004341   0.010701  -0.000524
    14  H    0.376665  -0.027718   0.005608  -0.001455   0.000415  -0.000026
    15  H    0.368050  -0.027573  -0.002016   0.003815   0.004715   0.000131
    16  H   -0.043642   0.385537  -0.026912  -0.035920   0.001066   0.000891
    17  H   -0.008682  -0.010854  -0.000679   0.093097   0.000201  -0.000065
    18  H    0.004864  -0.034201  -0.007483   0.320675   0.000225   0.013221
    19  H   -0.000158   0.005431  -0.018749  -0.000118  -0.000633   0.237030
    20  N   -0.099925   0.003237   0.000232  -0.074480  -0.003473   0.000049
    21  O   -0.061963   0.002666  -0.000507  -0.000157  -0.001549  -0.000001
    22  H   -0.000874  -0.029102   0.004137   0.322035  -0.000080  -0.000004
    23  H    0.002275  -0.000092  -0.000066   0.001142   0.000009   0.000001
              13         14         15         16         17         18
     1  C    0.000000   0.000000   0.000000   0.000001   0.000000  -0.000001
     2  H    0.000000   0.000000   0.000000   0.000000   0.000000   0.000000
     3  H    0.000000   0.000000   0.000000  -0.000002   0.000000   0.000000
     4  H   -0.015627   0.000006   0.003614   0.000003  -0.000034   0.000000
     5  H    0.000000   0.000000   0.000000   0.000000   0.000000   0.000000
     6  H    0.000000   0.000000   0.000000   0.000000   0.000000   0.000000
     7  C    0.266934   0.376665   0.368050  -0.043642  -0.008682   0.004864
     8  C   -0.016389  -0.027718  -0.027573   0.385537  -0.010854  -0.034201
     9  C   -0.007735   0.005608  -0.002016  -0.026912  -0.000679  -0.007483
    10  N   -0.004341  -0.001455   0.003815  -0.035920   0.093097   0.320675
    11  O    0.010701   0.000415   0.004715   0.001066   0.000201   0.000225
    12  O   -0.000524  -0.000026   0.000131   0.000891  -0.000065   0.013221
    13  C    4.658777  -0.035887  -0.032511   0.004273  -0.024399   0.000171
    14  H   -0.035887   0.442941  -0.016259  -0.003142  -0.000339  -0.000055
    15  H   -0.032511  -0.016259   0.466027  -0.000696   0.000341  -0.000101
    16  H    0.004273  -0.003142  -0.000696   0.461417   0.001001   0.000997
    17  H   -0.024399  -0.000339   0.000341   0.001001   0.262777  -0.000444
    18  H    0.000171  -0.000055  -0.000101   0.000997  -0.000444   0.337610
    19  H   -0.000012   0.000002  -0.000002  -0.000247  -0.000021  -0.000262
    20  N    0.284050  -0.001690   0.004396  -0.000304   0.245484   0.000286
    21  O    0.321350   0.001054  -0.002881  -0.000069   0.001153   0.000002
    22  H   -0.000285   0.001620  -0.000073  -0.003767  -0.001549  -0.020851
    23  H   -0.017389  -0.000079  -0.000051   0.000006   0.000061  -0.000007
              19         20         21         22         23
     1  C    0.026931   0.000000   0.000000   0.000000   0.000000
     2  H   -0.000938   0.000000   0.000000   0.000000   0.000000
     3  H    0.002070   0.000000   0.000000   0.000000   0.000000
     4  H    0.000000   0.005734   0.256818  -0.000001   0.000034
     5  H    0.005183   0.000000   0.000000   0.000000   0.000000
     6  H    0.004706   0.000000   0.000000   0.000000   0.000000
     7  C   -0.000158  -0.099925  -0.061963  -0.000874   0.002275
     8  C    0.005431   0.003237   0.002666  -0.029102  -0.000092
     9  C   -0.018749   0.000232  -0.000507   0.004137  -0.000066
    10  N   -0.000118  -0.074480  -0.000157   0.322035   0.001142
    11  O   -0.000633  -0.003473  -0.001549  -0.000080   0.000009
    12  O    0.237030   0.000049  -0.000001  -0.000004   0.000001
    13  C   -0.000012   0.284050   0.321350  -0.000285  -0.017389
    14  H    0.000002  -0.001690   0.001054   0.001620  -0.000079
    15  H   -0.000002   0.004396  -0.002881  -0.000073  -0.000051
    16  H   -0.000247  -0.000304  -0.000069  -0.003767   0.000006
    17  H   -0.000021   0.245484   0.001153  -0.001549   0.000061
    18  H   -0.000262   0.000286   0.000002  -0.020851  -0.000007
    19  H    0.275189   0.000011   0.000000   0.000016  -0.000001
    20  N    0.000011   7.171424  -0.110540   0.000930   0.261977
    21  O    0.000000  -0.110540   8.145458   0.000002  -0.000886
    22  H    0.000016   0.000930   0.000002   0.369995  -0.000015
    23  H   -0.000001   0.261977  -0.000886  -0.000015   0.316895
 Mulliken charges:
               1
     1  C   -0.698047
     2  H    0.213901
     3  H    0.179867
     4  H    0.462246
     5  H    0.168987
     6  H    0.162242
     7  C   -0.330123
     8  C   -0.110830
     9  C    0.553930
    10  N   -0.792343
    11  O   -0.410855
    12  O   -0.606324
    13  C    0.608842
    14  H    0.258342
    15  H    0.231075
    16  H    0.259509
    17  H    0.442953
    18  H    0.385354
    19  H    0.464568
    20  N   -0.687399
    21  O   -0.549949
    22  H    0.357866
    23  H    0.436187
 Sum of Mulliken charges =   1.00000
 Mulliken charges with hydrogens summed into heavy atoms:
               1
     1  C    0.026950
     7  C    0.159294
     8  C    0.148680
     9  C    0.553930
    10  N   -0.049123
    11  O   -0.410855
    12  O   -0.141756
    13  C    0.608842
    20  N    0.191741
    21  O   -0.087703
 Electronic spatial extent (au):  <R**2>=           1999.2327
 Charge=              1.0000 electrons
 Dipole moment (field-independent basis, Debye):
    X=              4.7846    Y=              1.7547    Z=              0.2765  Tot=              5.1037
 Quadrupole moment (field-independent basis, Debye-Ang):
   XX=            -33.5934   YY=            -47.9790   ZZ=            -46.0762
   XY=             -1.4488   XZ=             -2.3335   YZ=             -0.0882
 Traceless Quadrupole moment (field-independent basis, Debye-Ang):
   XX=              8.9561   YY=             -5.4295   ZZ=             -3.5266
   XY=             -1.4488   XZ=             -2.3335   YZ=             -0.0882
 Octapole moment (field-independent basis, Debye-Ang**2):
  XXX=            -21.4952  YYY=             16.1404  ZZZ=             18.0028  XYY=             24.1289
  XXY=            -18.6159  XXZ=              1.5650  XZZ=             28.1161  YZZ=            -10.0255
  YYZ=             -3.7550  XYZ=              3.8916
 Hexadecapole moment (field-independent basis, Debye-Ang**3):
 XXXX=          -1439.9224 YYYY=           -431.7389 ZZZZ=           -182.3998 XXXY=             23.3013
 XXXZ=            -26.4915 YYYX=            -15.2277 YYYZ=             37.1081 ZZZX=             42.3400
 ZZZY=            -17.1199 XXYY=           -329.9460 XXZZ=           -280.3143 YYZZ=           -104.2198
 XXYZ=              4.1713 YYXZ=            -21.4590 ZZXY=            -39.8877
 N-N= 5.850170850484D+02 E-N=-2.402092644242D+03  KE= 5.296815402950D+02
 No NMR shielding tensors so no spin-rotation constants.
 Leave Link  601 at Thu Mar 12 19:07:26 2020, MaxMem=    33554432 cpu:         0.1
 (Enter /usr/local/gaussian09d01/g09/l9999.exe)
 1\1\GINC-KARURA\SP\RM062X\6-31G\C5H13N2O3(1+)\RTAKE\12-Mar-2020\0\\#p 
 M062X/6-31G\\chk calc\\1,1\C,0,3.824482709,-1.14219544,1.17225369\H,0,
 4.799113079,-1.62961423,1.173808707\H,0,3.053614027,-1.916312598,1.160
 804944\H,0,-2.540416453,-2.844981592,-1.014302773\H,0,3.75960642,-0.53
 291794,2.07824618\H,0,3.765323683,-0.52154146,0.273951194\C,0,-2.40154
 2122,-0.705499021,0.492562549\C,0,-1.33365594,0.193207044,1.141270536\
 C,0,0.021967089,-0.47033751,0.950186539\N,0,-1.303304814,1.529148773,0
 .515945207\O,0,0.155929117,-1.611462803,0.51692019\O,0,1.024922388,0.3
 53392554,1.298656\C,0,-2.121889445,-0.918337302,-0.967112723\H,0,-3.39
 229932,-0.247402335,0.596496855\H,0,-2.419176945,-1.669900059,1.004436
 439\H,0,-1.526304416,0.239474424,2.221387894\H,0,-1.503902114,0.960750
 702,-1.170400229\H,0,-0.410560182,1.997532273,0.666150752\H,0,1.924402
 159,-0.039925506,1.230818645\N,0,-1.700457396,0.069239192,-1.694919761
 \O,0,-2.336854815,-2.071648312,-1.575178364\H,0,-2.071900591,2.1285565
 43,0.807834339\H,0,-1.458594136,-0.091635748,-2.98232886\\Version=ES64
 L-G09RevD.01\State=1-A\HF=-532.8800097\RMSD=5.394e-09\Dipole=-1.835250
 4,0.6569899,-0.4817753\Quadrupole=5.9413624,-3.7433004,-2.198062,1.858
 9486,2.7169024,0.1380564\PG=C01 [X(C5H13N2O3)]\\@


 WE SHOULD BE CAREFUL TO GET OUT OF AN EXPERIENCE ONLY THE WISDOM
 THAT IS IN IT -- AND STOP THERE;
 LEST WE BE LIKE THE CAT THAT SITS DOWN ON A HOT STOVE-LID.
 SHE WILL NEVER SIT DOWN ON A HOT STOVE LID AGAIN;
 BUT ALSO SHE WILL NEVER SIT DOWN ON A COLD ONE ANY MORE.

                                                     -- MARK TWAIN
 Job cpu time:       0 days  0 hours  0 minutes 55.8 seconds.
 File lengths (MBytes):  RWF=      7 Int=      0 D2E=      0 Chk=      2 Scr=      1
 Normal termination of Gaussian 09 at Thu Mar 12 19:07:27 2020.
