 Entering Gaussian System, Link 0=g09
 Input=./n20_h23_06.gjf
 Output=./n20_h23_06.log
 Initial command:
 /usr/local/gaussian09d01/g09/l1.exe "/scr/Gau-19585.inp" -scrdir="/scr/"
 Entering Link 1 = /usr/local/gaussian09d01/g09/l1.exe PID=     19586.
  
 Copyright (c) 1988,1990,1992,1993,1995,1998,2003,2009,2013,
            Gaussian, Inc.  All Rights Reserved.
  
 This is part of the Gaussian(R) 09 program.  It is based on
 the Gaussian(R) 03 system (copyright 2003, Gaussian, Inc.),
 the Gaussian(R) 98 system (copyright 1998, Gaussian, Inc.),
 the Gaussian(R) 94 system (copyright 1995, Gaussian, Inc.),
 the Gaussian 92(TM) system (copyright 1992, Gaussian, Inc.),
 the Gaussian 90(TM) system (copyright 1990, Gaussian, Inc.),
 the Gaussian 88(TM) system (copyright 1988, Gaussian, Inc.),
 the Gaussian 86(TM) system (copyright 1986, Carnegie Mellon
 University), and the Gaussian 82(TM) system (copyright 1983,
 Carnegie Mellon University). Gaussian is a federally registered
 trademark of Gaussian, Inc.
  
 This software contains proprietary and confidential information,
 including trade secrets, belonging to Gaussian, Inc.
  
 This software is provided under written license and may be
 used, copied, transmitted, or stored only in accord with that
 written license.
  
 The following legend is applicable only to US Government
 contracts under FAR:
  
                    RESTRICTED RIGHTS LEGEND
  
 Use, reproduction and disclosure by the US Government is
 subject to restrictions as set forth in subparagraphs (a)
 and (c) of the Commercial Computer Software - Restricted
 Rights clause in FAR 52.227-19.
  
 Gaussian, Inc.
 340 Quinnipiac St., Bldg. 40, Wallingford CT 06492
  
  
 ---------------------------------------------------------------
 Warning -- This program may not be used in any manner that
 competes with the business of Gaussian, Inc. or will provide
 assistance to any competitor of Gaussian, Inc.  The licensee
 of this program is prohibited from giving any competitor of
 Gaussian, Inc. access to this program.  By using this program,
 the user acknowledges that Gaussian, Inc. is engaged in the
 business of creating and licensing software in the field of
 computational chemistry and represents and warrants to the
 licensee that it is not a competitor of Gaussian, Inc. and that
 it will not use this program in any manner prohibited above.
 ---------------------------------------------------------------
  

 Cite this work as:
 Gaussian 09, Revision D.01,
 M. J. Frisch, G. W. Trucks, H. B. Schlegel, G. E. Scuseria, 
 M. A. Robb, J. R. Cheeseman, G. Scalmani, V. Barone, B. Mennucci, 
 G. A. Petersson, H. Nakatsuji, M. Caricato, X. Li, H. P. Hratchian, 
 A. F. Izmaylov, J. Bloino, G. Zheng, J. L. Sonnenberg, M. Hada, 
 M. Ehara, K. Toyota, R. Fukuda, J. Hasegawa, M. Ishida, T. Nakajima, 
 Y. Honda, O. Kitao, H. Nakai, T. Vreven, J. A. Montgomery, Jr., 
 J. E. Peralta, F. Ogliaro, M. Bearpark, J. J. Heyd, E. Brothers, 
 K. N. Kudin, V. N. Staroverov, T. Keith, R. Kobayashi, J. Normand, 
 K. Raghavachari, A. Rendell, J. C. Burant, S. S. Iyengar, J. Tomasi, 
 M. Cossi, N. Rega, J. M. Millam, M. Klene, J. E. Knox, J. B. Cross, 
 V. Bakken, C. Adamo, J. Jaramillo, R. Gomperts, R. E. Stratmann, 
 O. Yazyev, A. J. Austin, R. Cammi, C. Pomelli, J. W. Ochterski, 
 R. L. Martin, K. Morokuma, V. G. Zakrzewski, G. A. Voth, 
 P. Salvador, J. J. Dannenberg, S. Dapprich, A. D. Daniels, 
 O. Farkas, J. B. Foresman, J. V. Ortiz, J. Cioslowski, 
 and D. J. Fox, Gaussian, Inc., Wallingford CT, 2013.
 
 ******************************************
 Gaussian 09:  ES64L-G09RevD.01 24-Apr-2013
                12-Mar-2020 
 ******************************************
 --------------
 #p M062X/6-31G
 --------------
 1/38=1/1;
 2/12=2,17=6,18=5,40=1/2;
 3/5=1,6=6,11=2,16=1,25=1,30=1,74=-55/1,2,3;
 4//1;
 5/5=2,38=5/2;
 6/7=2,8=2,9=2,10=2,28=1/1;
 99/5=1,9=1/99;
 Leave Link    1 at Thu Mar 12 19:00:46 2020, MaxMem=           0 cpu:         0.0
 (Enter /usr/local/gaussian09d01/g09/l101.exe)
 --------
 chk calc
 --------
 Symbolic Z-matrix:
 Charge =  1 Multiplicity = 1
 C                     3.82448  -1.1422    1.17225 
 H                     4.79911  -1.62961   1.17381 
 H                     3.05361  -1.91631   1.1608 
 H                    -2.54042  -2.84498  -1.0143 
 H                     3.75961  -0.53292   2.07825 
 H                     3.76532  -0.52154   0.27395 
 C                    -2.40154  -0.7055    0.49256 
 C                    -1.33366   0.19321   1.14127 
 C                     0.02197  -0.47034   0.95019 
 N                    -1.3033    1.52915   0.51595 
 O                     0.15593  -1.61146   0.51692 
 O                     1.02492   0.35339   1.29866 
 C                    -2.12189  -0.91834  -0.96711 
 H                    -3.3923   -0.2474    0.5965 
 H                    -2.41918  -1.6699    1.00444 
 H                    -1.5263    0.23947   2.22139 
 H                    -1.5039    0.96075  -1.1704 
 H                    -0.41056   1.99753   0.66615 
 H                     1.9244   -0.03993   1.23082 
 N                    -1.70046   0.06924  -1.69492 
 O                    -2.33685  -2.07165  -1.57518 
 H                    -2.0719    2.12856   0.80783 
 H                    -1.58883  -0.00501  -2.28911 
 
 NAtoms=     23 NQM=       23 NQMF=       0 NMMI=      0 NMMIF=      0
                NMic=       0 NMicF=      0.
                    Isotopes and Nuclear Properties:
 (Nuclear quadrupole moments (NQMom) in fm**2, nuclear magnetic moments (NMagM)
  in nuclear magnetons)

  Atom         1           2           3           4           5           6           7           8           9          10
 IAtWgt=          12           1           1           1           1           1          12          12          12          14
 AtmWgt=  12.0000000   1.0078250   1.0078250   1.0078250   1.0078250   1.0078250  12.0000000  12.0000000  12.0000000  14.0030740
 NucSpn=           0           1           1           1           1           1           0           0           0           2
 AtZEff=   0.0000000   0.0000000   0.0000000   0.0000000   0.0000000   0.0000000   0.0000000   0.0000000   0.0000000   0.0000000
 NQMom=    0.0000000   0.0000000   0.0000000   0.0000000   0.0000000   0.0000000   0.0000000   0.0000000   0.0000000   2.0440000
 NMagM=    0.0000000   2.7928460   2.7928460   2.7928460   2.7928460   2.7928460   0.0000000   0.0000000   0.0000000   0.4037610
 AtZNuc=   6.0000000   1.0000000   1.0000000   1.0000000   1.0000000   1.0000000   6.0000000   6.0000000   6.0000000   7.0000000

  Atom        11          12          13          14          15          16          17          18          19          20
 IAtWgt=          16          16          12           1           1           1           1           1           1          14
 AtmWgt=  15.9949146  15.9949146  12.0000000   1.0078250   1.0078250   1.0078250   1.0078250   1.0078250   1.0078250  14.0030740
 NucSpn=           0           0           0           1           1           1           1           1           1           2
 AtZEff=   0.0000000   0.0000000   0.0000000   0.0000000   0.0000000   0.0000000   0.0000000   0.0000000   0.0000000   0.0000000
 NQMom=    0.0000000   0.0000000   0.0000000   0.0000000   0.0000000   0.0000000   0.0000000   0.0000000   0.0000000   2.0440000
 NMagM=    0.0000000   0.0000000   0.0000000   2.7928460   2.7928460   2.7928460   2.7928460   2.7928460   2.7928460   0.4037610
 AtZNuc=   8.0000000   8.0000000   6.0000000   1.0000000   1.0000000   1.0000000   1.0000000   1.0000000   1.0000000   7.0000000

  Atom        21          22          23
 IAtWgt=          16           1           1
 AtmWgt=  15.9949146   1.0078250   1.0078250
 NucSpn=           0           1           1
 AtZEff=   0.0000000   0.0000000   0.0000000
 NQMom=    0.0000000   0.0000000   0.0000000
 NMagM=    0.0000000   2.7928460   2.7928460
 AtZNuc=   8.0000000   1.0000000   1.0000000
 Leave Link  101 at Thu Mar 12 19:00:46 2020, MaxMem=    33554432 cpu:         0.0
 (Enter /usr/local/gaussian09d01/g09/l202.exe)
                          Input orientation:                          
 ---------------------------------------------------------------------
 Center     Atomic      Atomic             Coordinates (Angstroms)
 Number     Number       Type             X           Y           Z
 ---------------------------------------------------------------------
      1          6           0        3.824483   -1.142195    1.172254
      2          1           0        4.799113   -1.629614    1.173809
      3          1           0        3.053614   -1.916313    1.160805
      4          1           0       -2.540416   -2.844982   -1.014303
      5          1           0        3.759606   -0.532918    2.078246
      6          1           0        3.765324   -0.521541    0.273951
      7          6           0       -2.401542   -0.705499    0.492563
      8          6           0       -1.333656    0.193207    1.141271
      9          6           0        0.021967   -0.470338    0.950187
     10          7           0       -1.303305    1.529149    0.515945
     11          8           0        0.155929   -1.611463    0.516920
     12          8           0        1.024922    0.353393    1.298656
     13          6           0       -2.121889   -0.918337   -0.967113
     14          1           0       -3.392299   -0.247402    0.596497
     15          1           0       -2.419177   -1.669900    1.004436
     16          1           0       -1.526304    0.239474    2.221388
     17          1           0       -1.503902    0.960751   -1.170400
     18          1           0       -0.410560    1.997532    0.666151
     19          1           0        1.924402   -0.039926    1.230819
     20          7           0       -1.700457    0.069239   -1.694920
     21          8           0       -2.336855   -2.071648   -1.575178
     22          1           0       -2.071901    2.128557    0.807834
     23          1           0       -1.588828   -0.005011   -2.289109
 ---------------------------------------------------------------------
                    Distance matrix (angstroms):
                    1          2          3          4          5
     1  C    0.000000
     2  H    1.089717   0.000000
     3  H    1.092532   1.768935   0.000000
     4  H    6.942078   7.754589   6.073442   0.000000
     5  H    1.093732   1.761058   1.803858   7.389167   0.000000
     6  H    1.093462   1.762467   1.799563   6.842538   1.804340
     7  C    6.278222   7.291606   5.627730   2.620556   6.364270
     8  C    5.328288   6.398015   4.868120   3.915783   5.229388
     9  C    3.867794   4.920879   3.365425   4.007987   3.904662
    10  N    5.819023   6.902903   5.591940   4.796365   5.685594
    11  O    3.756056   4.689455   2.983974   3.337138   4.072774
    12  O    3.176523   4.265257   3.047319   5.318930   2.978557
    13  C    6.323476   7.279405   5.684173   1.972143   6.634362
    14  H    7.294799   8.327247   6.682328   3.172979   7.309368
    15  H    6.268167   7.220389   5.480567   2.338979   6.373630
    16  H    5.624999   6.678459   5.171838   4.583883   5.343962
    17  H    6.188869   7.206477   5.872220   3.947446   6.363118
    18  H    5.296189   6.368250   5.250083   5.550689   5.078138
    19  H    2.197438   3.285472   2.191084   5.730926   2.080661
    20  N    6.341389   7.304801   5.890567   3.108288   6.664208
    21  O    6.809871   7.659919   6.047056   0.976762   7.272004
    22  H    6.752626   7.840192   6.538842   5.317497   6.534820
    23  H    6.525194   7.445598   6.091572   3.255163   6.925188
                    6          7          8          9         10
     6  H    0.000000
     7  C    6.173481   0.000000
     8  C    5.221370   1.539115   0.000000
     9  C    3.804292   2.477522   1.521354   0.000000
    10  N    5.473106   2.490045   1.475362   2.437797   0.000000
    11  O    3.778186   2.713305   2.421882   1.227938   3.463063
    12  O    3.053740   3.675826   2.369245   1.343831   2.723175
    13  C    6.029674   1.501385   2.510403   2.910818   2.976530
    14  H    7.170129   1.096474   2.174610   3.439769   2.743450
    15  H    6.332486   1.091969   2.160613   2.720492   3.423114
    16  H    5.689726   2.155888   1.098138   2.125307   2.149773
    17  H    5.661103   2.519443   2.441706   2.978788   1.790831
    18  H    4.892602   3.361625   2.081690   2.521535   1.019283
    19  H    2.129916   4.438671   3.267616   1.970601   3.659389
    20  N    5.839541   2.424215   2.862497   3.202261   2.678990
    21  O    6.561912   2.479133   3.676285   3.808636   4.290310
    22  H    6.432825   2.870528   2.098038   3.340478   1.017462
    23  H    5.958441   2.981423   3.445563   3.647495   3.209906
                   11         12         13         14         15
    11  O    0.000000
    12  O    2.286245   0.000000
    13  C    2.805572   4.080861   0.000000
    14  H    3.802225   4.512852   2.123434   0.000000
    15  H    2.621499   4.005259   2.130782   1.771124   0.000000
    16  H    3.026729   2.715358   3.444094   2.521757   2.433907
    17  H    3.495479   3.586095   1.988519   2.854401   3.533832
    18  H    3.656231   2.272415   3.754796   3.733008   4.195121
    19  H    2.471210   0.984055   4.687748   5.358426   4.644862
    20  N    3.341132   4.058317   1.297157   2.865865   3.290545
    21  O    3.286734   5.043936   1.321393   3.026220   2.612009
    22  H    4.362981   3.603113   3.526542   2.726407   3.819362
    23  H    3.674053   4.453336   1.692924   3.411448   3.782694
                   16         17         18         19         20
    16  H    0.000000
    17  H    3.467704   0.000000
    18  H    2.598926   2.375549   0.000000
    19  H    3.600926   4.303542   3.149942   0.000000
    20  N    3.923872   1.052876   3.310106   4.659557   0.000000
    21  O    4.517986   3.170662   5.029155   5.491796   2.236680
    22  H    2.421661   2.366391   1.672511   4.566362   3.262290
    23  H    4.517550   1.480343   3.759262   4.973318   0.609126
                   21         22         23
    21  O    0.000000
    22  H    4.836390   0.000000
    23  H    2.310894   3.791639   0.000000
 Stoichiometry    C5H13N2O3(1+)
 Framework group  C1[X(C5H13N2O3)]
 Deg. of freedom    63
 Full point group                 C1      NOp   1
 Largest Abelian subgroup         C1      NOp   1
 Largest concise Abelian subgroup C1      NOp   1
                         Standard orientation:                         
 ---------------------------------------------------------------------
 Center     Atomic      Atomic             Coordinates (Angstroms)
 Number     Number       Type             X           Y           Z
 ---------------------------------------------------------------------
      1          6           0       -4.370664   -0.933862    0.323206
      2          1           0       -5.276308   -1.534376    0.404907
      3          1           0       -3.655957   -1.473986   -0.302163
      4          1           0        2.340909   -2.261951   -0.852979
      5          1           0       -4.649122    0.021941   -0.129733
      6          1           0       -3.974435   -0.792007    1.332433
      7          6           0        1.654482    0.264294   -0.972213
      8          6           0        0.425098    1.149797   -0.701332
      9          6           0       -0.761680    0.238965   -0.424820
     10          7           0        0.638910    2.023185    0.468357
     11          8           0       -0.727855   -0.977188   -0.591136
     12          8           0       -1.818130    0.933979    0.029877
     13          6           0        1.944512   -0.637474    0.192628
     14          1           0        2.535173    0.890287   -1.158680
     15          1           0        1.473390   -0.339397   -1.863929
     16          1           0        0.196729    1.717576   -1.613134
     17          1           0        1.457527    0.795213    1.482767
     18          1           0       -0.242412    2.338117    0.872123
     19          1           0       -2.627573    0.397423    0.188860
     20          7           0        1.833060   -0.185196    1.403263
     21          8           0        2.367351   -1.880765    0.045943
     22          1           0        1.243656    2.817786    0.273112
     23          1           0        1.953227   -0.541082    1.882783
 ---------------------------------------------------------------------
 Rotational constants (GHZ):      1.8125556      0.7192347      0.6066476
 Leave Link  202 at Thu Mar 12 19:00:46 2020, MaxMem=    33554432 cpu:         0.0
 (Enter /usr/local/gaussian09d01/g09/l301.exe)
 Standard basis: 6-31G (6D, 7F)
 Ernie: Thresh=  0.10000D-02 Tol=  0.10000D-05 Strict=F.
 There are   116 symmetry adapted cartesian basis functions of A   symmetry.
 There are   116 symmetry adapted basis functions of A   symmetry.
   116 basis functions,   272 primitive gaussians,   116 cartesian basis functions
    40 alpha electrons       40 beta electrons
       nuclear repulsion energy       590.1149521470 Hartrees.
 IExCor= 4336 DFT=T Ex+Corr=M062X ExCW=0 ScaHFX=  0.540000
 ScaDFX=  1.000000  1.000000  1.000000  1.000000 ScalE2=  1.000000  1.000000
 IRadAn=      0 IRanWt=     -1 IRanGd=            0 ICorTp=0 IEmpDi=  4
 NAtoms=   23 NActive=   23 NUniq=   23 SFac= 1.00D+00 NAtFMM=   60 NAOKFM=F Big=F
 Integral buffers will be    131072 words long.
 Raffenetti 2 integral format.
 Two-electron integral symmetry is turned on.
 Leave Link  301 at Thu Mar 12 19:00:46 2020, MaxMem=    33554432 cpu:         0.0
 (Enter /usr/local/gaussian09d01/g09/l302.exe)
 NPDir=0 NMtPBC=     1 NCelOv=     1 NCel=       1 NClECP=     1 NCelD=      1
         NCelK=      1 NCelE2=     1 NClLst=     1 CellRange=     0.0.
 One-electron integrals computed using PRISM.
 NBasis=   116 RedAO= T EigKep=  3.53D-03  NBF=   116
 NBsUse=   116 1.00D-06 EigRej= -1.00D+00 NBFU=   116
 Precomputing XC quadrature grid using
 IXCGrd= 4 IRadAn=           0 IRanWt=          -1 IRanGd=           0 AccXCQ= 0.00D+00.
 Generated NRdTot=       0 NPtTot=           0 NUsed=           0 NTot=          32
 NSgBfM=   115   115   115   115   115 MxSgAt=    23 MxSgA2=    23.
 Leave Link  302 at Thu Mar 12 19:00:46 2020, MaxMem=    33554432 cpu:         0.3
 (Enter /usr/local/gaussian09d01/g09/l303.exe)
 DipDrv:  MaxL=1.
 Leave Link  303 at Thu Mar 12 19:00:46 2020, MaxMem=    33554432 cpu:         0.0
 (Enter /usr/local/gaussian09d01/g09/l401.exe)
 ExpMin= 1.61D-01 ExpMax= 5.48D+03 ExpMxC= 8.25D+02 IAcc=1 IRadAn=         1 AccDes= 0.00D+00
 Harris functional with IExCor= 1009 and IRadAn=       1 diagonalized for initial guess.
 HarFok:  IExCor= 1009 AccDes= 0.00D+00 IRadAn=         1 IDoV= 1 UseB2=F ITyADJ=14
 ICtDFT=  3500011 ScaDFX=  1.000000  1.000000  1.000000  1.000000
 FoFCou: FMM=F IPFlag=           0 FMFlag=      100000 FMFlg1=           0
         NFxFlg=           0 DoJE=T BraDBF=F KetDBF=T FulRan=T
         wScrn=  0.000000 ICntrl=     500 IOpCl=  0 I1Cent=   200000004 NGrid=           0
         NMat0=    1 NMatS0=      1 NMatT0=    0 NMatD0=    1 NMtDS0=    0 NMtDT0=    0
 Petite list used in FoFCou.
 Harris En= -532.417495197299    
 JPrj=0 DoOrth=F DoCkMO=F.
 Leave Link  401 at Thu Mar 12 19:00:47 2020, MaxMem=    33554432 cpu:         0.8
 (Enter /usr/local/gaussian09d01/g09/l502.exe)
 Closed shell SCF:
 Using DIIS extrapolation, IDIIS=  1040.
 Integral symmetry usage will be decided dynamically.
 Keep R1 ints in memory in canonical form, NReq=24030401.
 IVT=       60528 IEndB=       60528 NGot=    33554432 MDV=    10465614
 LenX=    10465614 LenY=    10451717
 Requested convergence on RMS density matrix=1.00D-08 within 128 cycles.
 Requested convergence on MAX density matrix=1.00D-06.
 Requested convergence on             energy=1.00D-06.
 No special actions if energy rises.
 FoFCou: FMM=F IPFlag=           0 FMFlag=           0 FMFlg1=           0
         NFxFlg=           0 DoJE=F BraDBF=F KetDBF=F FulRan=T
         wScrn=  0.000000 ICntrl=     600 IOpCl=  0 I1Cent=           0 NGrid=           0
         NMat0=    1 NMatS0=   6786 NMatT0=    0 NMatD0=    1 NMtDS0=    0 NMtDT0=    0
 Symmetry not used in FoFCou.
 Integral accuracy reduced to 1.0D-05 until final iterations.

 Cycle   1  Pass 0  IDiag  1:
 E= -532.184898253848    
 DIIS: error= 5.31D-02 at cycle   1 NSaved=   1.
 NSaved= 1 IEnMin= 1 EnMin= -532.184898253848     IErMin= 1 ErrMin= 5.31D-02
 ErrMax= 5.31D-02  0.00D+00 EMaxC= 1.00D-01 BMatC= 4.10D-01 BMatP= 4.10D-01
 IDIUse=3 WtCom= 4.69D-01 WtEn= 5.31D-01
 Coeff-Com:  0.100D+01
 Coeff-En:   0.100D+01
 Coeff:      0.100D+01
 Gap=     0.242 Goal=   None    Shift=    0.000
 GapD=    0.242 DampG=1.000 DampE=0.500 DampFc=0.5000 IDamp=-1.
 Damping current iteration by 5.00D-01
 RMSDP=9.43D-03 MaxDP=2.42D-01              OVMax= 2.33D-01

 Cycle   2  Pass 0  IDiag  1:
 E= -532.348189042467     Delta-E=       -0.163290788619 Rises=F Damp=T
 DIIS: error= 1.04D-02 at cycle   2 NSaved=   2.
 NSaved= 2 IEnMin= 2 EnMin= -532.348189042467     IErMin= 2 ErrMin= 1.04D-02
 ErrMax= 1.04D-02  0.00D+00 EMaxC= 1.00D-01 BMatC= 2.10D-02 BMatP= 4.10D-01
 IDIUse=3 WtCom= 8.96D-01 WtEn= 1.04D-01
 Coeff-Com:  0.375D-01 0.963D+00
 Coeff-En:   0.606D-01 0.939D+00
 Coeff:      0.399D-01 0.960D+00
 Gap=     0.345 Goal=   None    Shift=    0.000
 RMSDP=2.29D-03 MaxDP=3.34D-02 DE=-1.63D-01 OVMax= 1.47D-01

 Cycle   3  Pass 0  IDiag  1:
 E= -532.526839147581     Delta-E=       -0.178650105114 Rises=F Damp=F
 DIIS: error= 1.02D-02 at cycle   3 NSaved=   3.
 NSaved= 3 IEnMin= 3 EnMin= -532.526839147581     IErMin= 3 ErrMin= 1.02D-02
 ErrMax= 1.02D-02  0.00D+00 EMaxC= 1.00D-01 BMatC= 1.46D-02 BMatP= 2.10D-02
 IDIUse=3 WtCom= 8.98D-01 WtEn= 1.02D-01
 Coeff-Com: -0.173D-01 0.450D+00 0.567D+00
 Coeff-En:   0.000D+00 0.000D+00 0.100D+01
 Coeff:     -0.155D-01 0.404D+00 0.612D+00
 Gap=     0.324 Goal=   None    Shift=    0.000
 RMSDP=1.33D-03 MaxDP=3.35D-02 DE=-1.79D-01 OVMax= 5.21D-02

 Cycle   4  Pass 0  IDiag  1:
 E= -532.536775601007     Delta-E=       -0.009936453426 Rises=F Damp=F
 DIIS: error= 6.82D-03 at cycle   4 NSaved=   4.
 NSaved= 4 IEnMin= 4 EnMin= -532.536775601007     IErMin= 4 ErrMin= 6.82D-03
 ErrMax= 6.82D-03  0.00D+00 EMaxC= 1.00D-01 BMatC= 3.36D-03 BMatP= 1.46D-02
 IDIUse=3 WtCom= 9.32D-01 WtEn= 6.82D-02
 Coeff-Com: -0.777D-02 0.572D-01 0.333D+00 0.618D+00
 Coeff-En:   0.000D+00 0.000D+00 0.160D+00 0.840D+00
 Coeff:     -0.724D-02 0.533D-01 0.321D+00 0.633D+00
 Gap=     0.323 Goal=   None    Shift=    0.000
 RMSDP=5.46D-04 MaxDP=1.21D-02 DE=-9.94D-03 OVMax= 1.93D-02

 Cycle   5  Pass 0  IDiag  1:
 E= -532.539070895512     Delta-E=       -0.002295294505 Rises=F Damp=F
 DIIS: error= 1.52D-03 at cycle   5 NSaved=   5.
 NSaved= 5 IEnMin= 5 EnMin= -532.539070895512     IErMin= 5 ErrMin= 1.52D-03
 ErrMax= 1.52D-03  0.00D+00 EMaxC= 1.00D-01 BMatC= 2.83D-04 BMatP= 3.36D-03
 IDIUse=3 WtCom= 9.85D-01 WtEn= 1.52D-02
 Coeff-Com: -0.156D-02-0.376D-02 0.131D+00 0.341D+00 0.534D+00
 Coeff-En:   0.000D+00 0.000D+00 0.000D+00 0.000D+00 0.100D+01
 Coeff:     -0.154D-02-0.370D-02 0.129D+00 0.336D+00 0.541D+00
 Gap=     0.322 Goal=   None    Shift=    0.000
 RMSDP=1.41D-04 MaxDP=2.92D-03 DE=-2.30D-03 OVMax= 5.44D-03

 Cycle   6  Pass 0  IDiag  1:
 E= -532.539317959348     Delta-E=       -0.000247063836 Rises=F Damp=F
 DIIS: error= 3.13D-04 at cycle   6 NSaved=   6.
 NSaved= 6 IEnMin= 6 EnMin= -532.539317959348     IErMin= 6 ErrMin= 3.13D-04
 ErrMax= 3.13D-04  0.00D+00 EMaxC= 1.00D-01 BMatC= 7.55D-06 BMatP= 2.83D-04
 IDIUse=3 WtCom= 9.97D-01 WtEn= 3.13D-03
 Coeff-Com:  0.434D-03-0.484D-02 0.292D-01 0.737D-01 0.187D+00 0.715D+00
 Coeff-En:   0.000D+00 0.000D+00 0.000D+00 0.000D+00 0.000D+00 0.100D+01
 Coeff:      0.433D-03-0.483D-02 0.291D-01 0.734D-01 0.186D+00 0.715D+00
 Gap=     0.322 Goal=   None    Shift=    0.000
 RMSDP=2.97D-05 MaxDP=5.52D-04 DE=-2.47D-04 OVMax= 7.87D-04

 Cycle   7  Pass 0  IDiag  1:
 E= -532.539324207250     Delta-E=       -0.000006247902 Rises=F Damp=F
 DIIS: error= 1.01D-04 at cycle   7 NSaved=   7.
 NSaved= 7 IEnMin= 7 EnMin= -532.539324207250     IErMin= 7 ErrMin= 1.01D-04
 ErrMax= 1.01D-04  0.00D+00 EMaxC= 1.00D-01 BMatC= 1.05D-06 BMatP= 7.55D-06
 IDIUse=3 WtCom= 9.99D-01 WtEn= 1.01D-03
 Coeff-Com:  0.526D-03-0.150D-02-0.483D-02-0.202D-01 0.400D-02 0.274D+00
 Coeff-Com:  0.748D+00
 Coeff-En:   0.000D+00 0.000D+00 0.000D+00 0.000D+00 0.000D+00 0.000D+00
 Coeff-En:   0.100D+01
 Coeff:      0.525D-03-0.150D-02-0.482D-02-0.202D-01 0.399D-02 0.274D+00
 Coeff:      0.748D+00
 Gap=     0.322 Goal=   None    Shift=    0.000
 RMSDP=1.45D-05 MaxDP=1.96D-04 DE=-6.25D-06 OVMax= 2.94D-04

 Cycle   8  Pass 0  IDiag  1:
 E= -532.539325208637     Delta-E=       -0.000001001387 Rises=F Damp=F
 DIIS: error= 3.74D-05 at cycle   8 NSaved=   8.
 NSaved= 8 IEnMin= 8 EnMin= -532.539325208637     IErMin= 8 ErrMin= 3.74D-05
 ErrMax= 3.74D-05  0.00D+00 EMaxC= 1.00D-01 BMatC= 1.42D-07 BMatP= 1.05D-06
 IDIUse=1 WtCom= 1.00D+00 WtEn= 0.00D+00
 Coeff-Com:  0.203D-03-0.134D-03-0.541D-02-0.186D-01-0.217D-01 0.104D-01
 Coeff-Com:  0.310D+00 0.725D+00
 Coeff:      0.203D-03-0.134D-03-0.541D-02-0.186D-01-0.217D-01 0.104D-01
 Coeff:      0.310D+00 0.725D+00
 Gap=     0.322 Goal=   None    Shift=    0.000
 RMSDP=5.76D-06 MaxDP=1.14D-04 DE=-1.00D-06 OVMax= 1.28D-04

 Initial convergence to 1.0D-05 achieved.  Increase integral accuracy.
 Cycle   9  Pass 1  IDiag  1:
 E= -532.539457511800     Delta-E=       -0.000132303164 Rises=F Damp=F
 DIIS: error= 1.36D-04 at cycle   1 NSaved=   1.
 NSaved= 1 IEnMin= 1 EnMin= -532.539457511800     IErMin= 1 ErrMin= 1.36D-04
 ErrMax= 1.36D-04  0.00D+00 EMaxC= 1.00D-01 BMatC= 1.87D-06 BMatP= 1.87D-06
 IDIUse=3 WtCom= 9.99D-01 WtEn= 1.36D-03
 Coeff-Com:  0.100D+01
 Coeff-En:   0.100D+01
 Coeff:      0.100D+01
 Gap=     0.322 Goal=   None    Shift=    0.000
 RMSDP=5.76D-06 MaxDP=1.14D-04 DE=-1.32D-04 OVMax= 2.07D-04

 Cycle  10  Pass 1  IDiag  1:
 E= -532.539459280126     Delta-E=       -0.000001768325 Rises=F Damp=F
 DIIS: error= 7.25D-05 at cycle   2 NSaved=   2.
 NSaved= 2 IEnMin= 2 EnMin= -532.539459280126     IErMin= 2 ErrMin= 7.25D-05
 ErrMax= 7.25D-05  0.00D+00 EMaxC= 1.00D-01 BMatC= 3.52D-07 BMatP= 1.87D-06
 IDIUse=1 WtCom= 1.00D+00 WtEn= 0.00D+00
 Coeff-Com:  0.217D+00 0.783D+00
 Coeff:      0.217D+00 0.783D+00
 Gap=     0.322 Goal=   None    Shift=    0.000
 RMSDP=7.56D-06 MaxDP=1.39D-04 DE=-1.77D-06 OVMax= 1.52D-04

 Cycle  11  Pass 1  IDiag  1:
 E= -532.539459532341     Delta-E=       -0.000000252215 Rises=F Damp=F
 DIIS: error= 3.07D-05 at cycle   3 NSaved=   3.
 NSaved= 3 IEnMin= 3 EnMin= -532.539459532341     IErMin= 3 ErrMin= 3.07D-05
 ErrMax= 3.07D-05  0.00D+00 EMaxC= 1.00D-01 BMatC= 1.28D-07 BMatP= 3.52D-07
 IDIUse=1 WtCom= 1.00D+00 WtEn= 0.00D+00
 Coeff-Com: -0.381D-01 0.361D+00 0.677D+00
 Coeff:     -0.381D-01 0.361D+00 0.677D+00
 Gap=     0.322 Goal=   None    Shift=    0.000
 RMSDP=3.39D-06 MaxDP=7.21D-05 DE=-2.52D-07 OVMax= 6.81D-05

 Cycle  12  Pass 1  IDiag  1:
 E= -532.539459640189     Delta-E=       -0.000000107848 Rises=F Damp=F
 DIIS: error= 8.24D-06 at cycle   4 NSaved=   4.
 NSaved= 4 IEnMin= 4 EnMin= -532.539459640189     IErMin= 4 ErrMin= 8.24D-06
 ErrMax= 8.24D-06  0.00D+00 EMaxC= 1.00D-01 BMatC= 8.83D-09 BMatP= 1.28D-07
 IDIUse=1 WtCom= 1.00D+00 WtEn= 0.00D+00
 Coeff-Com: -0.304D-01 0.148D+00 0.337D+00 0.546D+00
 Coeff:     -0.304D-01 0.148D+00 0.337D+00 0.546D+00
 Gap=     0.322 Goal=   None    Shift=    0.000
 RMSDP=7.39D-07 MaxDP=1.73D-05 DE=-1.08D-07 OVMax= 1.99D-05

 Cycle  13  Pass 1  IDiag  1:
 E= -532.539459647170     Delta-E=       -0.000000006981 Rises=F Damp=F
 DIIS: error= 1.66D-06 at cycle   5 NSaved=   5.
 NSaved= 5 IEnMin= 5 EnMin= -532.539459647170     IErMin= 5 ErrMin= 1.66D-06
 ErrMax= 1.66D-06  0.00D+00 EMaxC= 1.00D-01 BMatC= 2.91D-10 BMatP= 8.83D-09
 IDIUse=1 WtCom= 1.00D+00 WtEn= 0.00D+00
 Coeff-Com: -0.394D-02 0.156D-02 0.171D-01 0.139D+00 0.846D+00
 Coeff:     -0.394D-02 0.156D-02 0.171D-01 0.139D+00 0.846D+00
 Gap=     0.322 Goal=   None    Shift=    0.000
 RMSDP=2.82D-07 MaxDP=4.97D-06 DE=-6.98D-09 OVMax= 6.06D-06

 Cycle  14  Pass 1  IDiag  1:
 E= -532.539459647391     Delta-E=       -0.000000000221 Rises=F Damp=F
 DIIS: error= 1.31D-06 at cycle   6 NSaved=   6.
 NSaved= 6 IEnMin= 6 EnMin= -532.539459647391     IErMin= 6 ErrMin= 1.31D-06
 ErrMax= 1.31D-06  0.00D+00 EMaxC= 1.00D-01 BMatC= 1.57D-10 BMatP= 2.91D-10
 IDIUse=1 WtCom= 1.00D+00 WtEn= 0.00D+00
 Coeff-Com:  0.155D-02-0.170D-01-0.311D-01 0.177D-01 0.501D+00 0.528D+00
 Coeff:      0.155D-02-0.170D-01-0.311D-01 0.177D-01 0.501D+00 0.528D+00
 Gap=     0.322 Goal=   None    Shift=    0.000
 RMSDP=1.03D-07 MaxDP=2.93D-06 DE=-2.21D-10 OVMax= 5.09D-06

 Cycle  15  Pass 1  IDiag  1:
 E= -532.539459647509     Delta-E=       -0.000000000118 Rises=F Damp=F
 DIIS: error= 3.47D-07 at cycle   7 NSaved=   7.
 NSaved= 7 IEnMin= 7 EnMin= -532.539459647509     IErMin= 7 ErrMin= 3.47D-07
 ErrMax= 3.47D-07  0.00D+00 EMaxC= 1.00D-01 BMatC= 7.29D-12 BMatP= 1.57D-10
 IDIUse=1 WtCom= 1.00D+00 WtEn= 0.00D+00
 Coeff-Com:  0.873D-03-0.624D-02-0.128D-01-0.620D-02 0.911D-01 0.216D+00
 Coeff-Com:  0.718D+00
 Coeff:      0.873D-03-0.624D-02-0.128D-01-0.620D-02 0.911D-01 0.216D+00
 Coeff:      0.718D+00
 Gap=     0.322 Goal=   None    Shift=    0.000
 RMSDP=3.67D-08 MaxDP=6.62D-07 DE=-1.18D-10 OVMax= 8.60D-07

 Cycle  16  Pass 1  IDiag  1:
 E= -532.539459647520     Delta-E=       -0.000000000011 Rises=F Damp=F
 DIIS: error= 1.01D-07 at cycle   8 NSaved=   8.
 NSaved= 8 IEnMin= 8 EnMin= -532.539459647520     IErMin= 8 ErrMin= 1.01D-07
 ErrMax= 1.01D-07  0.00D+00 EMaxC= 1.00D-01 BMatC= 8.32D-13 BMatP= 7.29D-12
 IDIUse=1 WtCom= 1.00D+00 WtEn= 0.00D+00
 Coeff-Com:  0.134D-03-0.948D-04-0.776D-03-0.453D-02-0.360D-01 0.233D-01
 Coeff-Com:  0.291D+00 0.727D+00
 Coeff:      0.134D-03-0.948D-04-0.776D-03-0.453D-02-0.360D-01 0.233D-01
 Coeff:      0.291D+00 0.727D+00
 Gap=     0.322 Goal=   None    Shift=    0.000
 RMSDP=1.23D-08 MaxDP=2.13D-07 DE=-1.07D-11 OVMax= 3.48D-07

 Cycle  17  Pass 1  IDiag  1:
 E= -532.539459647518     Delta-E=        0.000000000002 Rises=F Damp=F
 DIIS: error= 2.09D-08 at cycle   9 NSaved=   9.
 NSaved= 9 IEnMin= 8 EnMin= -532.539459647520     IErMin= 9 ErrMin= 2.09D-08
 ErrMax= 2.09D-08  0.00D+00 EMaxC= 1.00D-01 BMatC= 1.07D-13 BMatP= 8.32D-13
 IDIUse=1 WtCom= 1.00D+00 WtEn= 0.00D+00
 Coeff-Com: -0.297D-04 0.567D-03 0.946D-03-0.132D-02-0.248D-01-0.113D-01
 Coeff-Com:  0.366D-01 0.301D+00 0.699D+00
 Coeff:     -0.297D-04 0.567D-03 0.946D-03-0.132D-02-0.248D-01-0.113D-01
 Coeff:      0.366D-01 0.301D+00 0.699D+00
 Gap=     0.322 Goal=   None    Shift=    0.000
 RMSDP=4.49D-09 MaxDP=7.84D-08 DE= 2.27D-12 OVMax= 1.61D-07

 SCF Done:  E(RM062X) =  -532.539459648     A.U. after   17 cycles
            NFock= 17  Conv=0.45D-08     -V/T= 2.0023
 KE= 5.313053613044D+02 PE=-2.411959374625D+03 EE= 7.579996015260D+02
 Leave Link  502 at Thu Mar 12 19:01:42 2020, MaxMem=    33554432 cpu:        54.9
 (Enter /usr/local/gaussian09d01/g09/l601.exe)
 Copying SCF densities to generalized density rwf, IOpCl= 0 IROHF=0.

 **********************************************************************

            Population analysis using the SCF density.

 **********************************************************************

 Orbital symmetries:
       Occupied  (A) (A) (A) (A) (A) (A) (A) (A) (A) (A) (A) (A)
                 (A) (A) (A) (A) (A) (A) (A) (A) (A) (A) (A) (A)
                 (A) (A) (A) (A) (A) (A) (A) (A) (A) (A) (A) (A)
                 (A) (A) (A) (A)
       Virtual   (A) (A) (A) (A) (A) (A) (A) (A) (A) (A) (A) (A)
                 (A) (A) (A) (A) (A) (A) (A) (A) (A) (A) (A) (A)
                 (A) (A) (A) (A) (A) (A) (A) (A) (A) (A) (A) (A)
                 (A) (A) (A) (A) (A) (A) (A) (A) (A) (A) (A) (A)
                 (A) (A) (A) (A) (A) (A) (A) (A) (A) (A) (A) (A)
                 (A) (A) (A) (A) (A) (A) (A) (A) (A) (A) (A) (A)
                 (A) (A) (A) (A)
 The electronic state is 1-A.
 Alpha  occ. eigenvalues --  -19.89554 -19.84348 -19.80913 -14.97604 -14.93188
 Alpha  occ. eigenvalues --  -10.90901 -10.86541 -10.78354 -10.75985 -10.63166
 Alpha  occ. eigenvalues --   -1.44365  -1.40596  -1.32507  -1.31576  -1.19231
 Alpha  occ. eigenvalues --   -1.08819  -1.00266  -0.95184  -0.91811  -0.90085
 Alpha  occ. eigenvalues --   -0.86001  -0.80189  -0.78461  -0.75105  -0.74131
 Alpha  occ. eigenvalues --   -0.73836  -0.73088  -0.69660  -0.66824  -0.65257
 Alpha  occ. eigenvalues --   -0.64309  -0.62571  -0.61046  -0.57938  -0.57174
 Alpha  occ. eigenvalues --   -0.56968  -0.56044  -0.54542  -0.51969  -0.49730
 Alpha virt. eigenvalues --   -0.17495  -0.12605  -0.07434  -0.03106  -0.00959
 Alpha virt. eigenvalues --    0.00224   0.01218   0.04207   0.04576   0.04895
 Alpha virt. eigenvalues --    0.06113   0.07554   0.09566   0.10366   0.10940
 Alpha virt. eigenvalues --    0.11176   0.11946   0.12590   0.15868   0.18341
 Alpha virt. eigenvalues --    0.20065   0.23144   0.27320   0.38366   0.39863
 Alpha virt. eigenvalues --    0.42910   0.45465   0.47144   0.48007   0.48346
 Alpha virt. eigenvalues --    0.49260   0.51455   0.51915   0.54482   0.57924
 Alpha virt. eigenvalues --    0.58113   0.60302   0.63279   0.64043   0.67461
 Alpha virt. eigenvalues --    0.67987   0.70582   0.74188   0.74991   0.76565
 Alpha virt. eigenvalues --    0.78315   0.80306   0.82982   0.83963   0.85092
 Alpha virt. eigenvalues --    0.87149   0.87607   0.87850   0.89752   0.91813
 Alpha virt. eigenvalues --    0.91954   0.94390   0.94907   0.96294   1.01620
 Alpha virt. eigenvalues --    1.03749   1.07214   1.09438   1.10820   1.11770
 Alpha virt. eigenvalues --    1.16953   1.19275   1.28132   1.31541   1.38705
 Alpha virt. eigenvalues --    1.51630   1.59327   1.67619   1.76090   1.83870
 Alpha virt. eigenvalues --    1.98063
          Condensed to atoms (all electrons):
               1          2          3          4          5          6
     1  C    5.189541   0.375579   0.371619   0.000000   0.370049   0.370794
     2  H    0.375579   0.467877  -0.017886   0.000000  -0.019741  -0.020135
     3  H    0.371619  -0.017886   0.521763   0.000000  -0.029657  -0.030188
     4  H    0.000000   0.000000   0.000000   0.284165   0.000000   0.000000
     5  H    0.370049  -0.019741  -0.029657   0.000000   0.538409  -0.032271
     6  H    0.370794  -0.020135  -0.030188   0.000000  -0.032271   0.544771
     7  C    0.000000   0.000000  -0.000001  -0.006179   0.000000   0.000000
     8  C   -0.000004   0.000001   0.000082   0.000121  -0.000011  -0.000007
     9  C    0.000292   0.000037   0.001469   0.000063  -0.000155  -0.000132
    10  N    0.000000   0.000000  -0.000001   0.000021   0.000000   0.000000
    11  O   -0.001291   0.000015   0.003219   0.000342   0.000043   0.000016
    12  O   -0.005299   0.000175  -0.001609   0.000000  -0.000770  -0.000637
    13  C    0.000000   0.000000   0.000000  -0.015371   0.000000   0.000000
    14  H    0.000000   0.000000   0.000000   0.000031   0.000000   0.000000
    15  H    0.000000   0.000000   0.000000   0.003837   0.000000   0.000000
    16  H    0.000001   0.000000  -0.000002   0.000002   0.000000   0.000000
    17  H    0.000000   0.000000   0.000000  -0.000005   0.000000   0.000000
    18  H   -0.000001   0.000000   0.000000   0.000000   0.000000   0.000000
    19  H    0.027248  -0.000953   0.002072   0.000000   0.005246   0.004756
    20  N    0.000000   0.000000   0.000000   0.005617   0.000000   0.000000
    21  O    0.000000   0.000000   0.000000   0.257224   0.000000   0.000000
    22  H    0.000000   0.000000   0.000000   0.000000   0.000000   0.000000
    23  H    0.000000   0.000000   0.000000  -0.000164   0.000000   0.000000
               7          8          9         10         11         12
     1  C    0.000000  -0.000004   0.000292   0.000000  -0.001291  -0.005299
     2  H    0.000000   0.000001   0.000037   0.000000   0.000015   0.000175
     3  H   -0.000001   0.000082   0.001469  -0.000001   0.003219  -0.001609
     4  H   -0.006179   0.000121   0.000063   0.000021   0.000342   0.000000
     5  H    0.000000  -0.000011  -0.000155   0.000000   0.000043  -0.000770
     6  H    0.000000  -0.000007  -0.000132   0.000000   0.000016  -0.000637
     7  C    5.464532   0.215941  -0.047873  -0.073399   0.007683   0.005361
     8  C    0.215941   5.572659   0.150533   0.192863  -0.124422  -0.148071
     9  C   -0.047873   0.150533   4.754676  -0.049349   0.493542   0.197471
    10  N   -0.073399   0.192863  -0.049349   7.097748   0.002207   0.001756
    11  O    0.007683  -0.124422   0.493542   0.002207   8.125318  -0.108437
    12  O    0.005361  -0.148071   0.197471   0.001756  -0.108437   8.414049
    13  C    0.245754  -0.016961  -0.007757  -0.008891   0.012085  -0.000492
    14  H    0.375619  -0.027393   0.005556  -0.001428   0.000422  -0.000024
    15  H    0.364262  -0.027399  -0.001878   0.003738   0.004645   0.000130
    16  H   -0.043109   0.385702  -0.026805  -0.035439   0.001070   0.000900
    17  H   -0.014303  -0.010500  -0.000703   0.095003   0.000168  -0.000075
    18  H    0.004804  -0.034127  -0.007414   0.320737   0.000224   0.013142
    19  H   -0.000158   0.005350  -0.018888  -0.000116  -0.000730   0.237008
    20  N   -0.099668   0.004598  -0.000026  -0.073801  -0.003399   0.000058
    21  O   -0.068637   0.002779  -0.000498  -0.000165  -0.001719  -0.000001
    22  H   -0.000931  -0.029212   0.004116   0.322209  -0.000080  -0.000001
    23  H    0.011624  -0.000706  -0.000033   0.002012   0.000146   0.000012
              13         14         15         16         17         18
     1  C    0.000000   0.000000   0.000000   0.000001   0.000000  -0.000001
     2  H    0.000000   0.000000   0.000000   0.000000   0.000000   0.000000
     3  H    0.000000   0.000000   0.000000  -0.000002   0.000000   0.000000
     4  H   -0.015371   0.000031   0.003837   0.000002  -0.000005   0.000000
     5  H    0.000000   0.000000   0.000000   0.000000   0.000000   0.000000
     6  H    0.000000   0.000000   0.000000   0.000000   0.000000   0.000000
     7  C    0.245754   0.375619   0.364262  -0.043109  -0.014303   0.004804
     8  C   -0.016961  -0.027393  -0.027399   0.385702  -0.010500  -0.034127
     9  C   -0.007757   0.005556  -0.001878  -0.026805  -0.000703  -0.007414
    10  N   -0.008891  -0.001428   0.003738  -0.035439   0.095003   0.320737
    11  O    0.012085   0.000422   0.004645   0.001070   0.000168   0.000224
    12  O   -0.000492  -0.000024   0.000130   0.000900  -0.000075   0.013142
    13  C    4.629977  -0.034823  -0.029264   0.004006  -0.012497   0.000251
    14  H   -0.034823   0.437275  -0.015487  -0.003294  -0.000220  -0.000052
    15  H   -0.029264  -0.015487   0.462717  -0.000693   0.000466  -0.000100
    16  H    0.004006  -0.003294  -0.000693   0.457356   0.000971   0.000993
    17  H   -0.012497  -0.000220   0.000466   0.000971   0.252505  -0.000387
    18  H    0.000251  -0.000052  -0.000100   0.000993  -0.000387   0.335662
    19  H   -0.000010   0.000002  -0.000002  -0.000244  -0.000020  -0.000254
    20  N    0.384061  -0.001729   0.004427  -0.000298   0.230396   0.000260
    21  O    0.322421   0.000971  -0.002564  -0.000070   0.001397   0.000002
    22  H   -0.000163   0.001599  -0.000068  -0.003797  -0.001482  -0.020579
    23  H   -0.025120  -0.000274  -0.000142   0.000019  -0.016919  -0.000047
              19         20         21         22         23
     1  C    0.027248   0.000000   0.000000   0.000000   0.000000
     2  H   -0.000953   0.000000   0.000000   0.000000   0.000000
     3  H    0.002072   0.000000   0.000000   0.000000   0.000000
     4  H    0.000000   0.005617   0.257224   0.000000  -0.000164
     5  H    0.005246   0.000000   0.000000   0.000000   0.000000
     6  H    0.004756   0.000000   0.000000   0.000000   0.000000
     7  C   -0.000158  -0.099668  -0.068637  -0.000931   0.011624
     8  C    0.005350   0.004598   0.002779  -0.029212  -0.000706
     9  C   -0.018888  -0.000026  -0.000498   0.004116  -0.000033
    10  N   -0.000116  -0.073801  -0.000165   0.322209   0.002012
    11  O   -0.000730  -0.003399  -0.001719  -0.000080   0.000146
    12  O    0.237008   0.000058  -0.000001  -0.000001   0.000012
    13  C   -0.000010   0.384061   0.322421  -0.000163  -0.025120
    14  H    0.000002  -0.001729   0.000971   0.001599  -0.000274
    15  H   -0.000002   0.004427  -0.002564  -0.000068  -0.000142
    16  H   -0.000244  -0.000298  -0.000070  -0.003797   0.000019
    17  H   -0.000020   0.230396   0.001397  -0.001482  -0.016919
    18  H   -0.000254   0.000260   0.000002  -0.020579  -0.000047
    19  H    0.273853   0.000011   0.000000   0.000016  -0.000001
    20  N    0.000011   6.614618  -0.104858   0.000876   0.385594
    21  O    0.000000  -0.104858   8.138446   0.000002  -0.009307
    22  H    0.000016   0.000876   0.000002   0.368742  -0.000045
    23  H   -0.000001   0.385594  -0.009307  -0.000045   0.558060
 Mulliken charges:
               1
     1  C   -0.698528
     2  H    0.215031
     3  H    0.179118
     4  H    0.470297
     5  H    0.168857
     6  H    0.163032
     7  C   -0.341322
     8  C   -0.111816
     9  C    0.553758
    10  N   -0.795705
    11  O   -0.411066
    12  O   -0.604645
    13  C    0.552795
    14  H    0.263248
    15  H    0.233376
    16  H    0.262731
    17  H    0.476205
    18  H    0.386885
    19  H    0.465815
    20  N   -0.346736
    21  O   -0.535424
    22  H    0.358799
    23  H    0.095293
 Sum of Mulliken charges =   1.00000
 Mulliken charges with hydrogens summed into heavy atoms:
               1
     1  C    0.027510
     7  C    0.155303
     8  C    0.150915
     9  C    0.553758
    10  N   -0.050021
    11  O   -0.411066
    12  O   -0.138830
    13  C    0.552795
    20  N    0.224762
    21  O   -0.065126
 Electronic spatial extent (au):  <R**2>=           1988.7037
 Charge=              1.0000 electrons
 Dipole moment (field-independent basis, Debye):
    X=              4.5810    Y=              2.1543    Z=             -0.8483  Tot=              5.1328
 Quadrupole moment (field-independent basis, Debye-Ang):
   XX=            -33.1730   YY=            -47.8893   ZZ=            -49.7275
   XY=             -0.5301   XZ=             -5.0529   YZ=              2.2524
 Traceless Quadrupole moment (field-independent basis, Debye-Ang):
   XX=             10.4236   YY=             -4.2927   ZZ=             -6.1310
   XY=             -0.5301   XZ=             -5.0529   YZ=              2.2524
 Octapole moment (field-independent basis, Debye-Ang**2):
  XXX=            -19.3798  YYY=             15.2404  ZZZ=              7.0961  XYY=             24.3130
  XXY=            -16.5231  XXZ=             -3.7124  XZZ=             18.9222  YZZ=             -2.5879
  YYZ=             -6.7664  XYZ=              9.2304
 Hexadecapole moment (field-independent basis, Debye-Ang**3):
 XXXX=          -1418.1007 YYYY=           -423.5245 ZZZZ=           -204.6358 XXXY=             26.6001
 XXXZ=            -36.4416 YYYX=            -17.5419 YYYZ=             40.0260 ZZZX=             16.8198
 ZZZY=              2.1248 XXYY=           -328.2766 XXZZ=           -297.6163 YYZZ=           -110.9771
 XXYZ=             15.8411 YYXZ=            -28.2394 ZZXY=            -22.5359
 N-N= 5.901149521470D+02 E-N=-2.411959375974D+03  KE= 5.313053613044D+02
 No NMR shielding tensors so no spin-rotation constants.
 Leave Link  601 at Thu Mar 12 19:01:42 2020, MaxMem=    33554432 cpu:         0.1
 (Enter /usr/local/gaussian09d01/g09/l9999.exe)
 1\1\GINC-KARURA\SP\RM062X\6-31G\C5H13N2O3(1+)\RTAKE\12-Mar-2020\0\\#p 
 M062X/6-31G\\chk calc\\1,1\C,0,3.824482709,-1.14219544,1.17225369\H,0,
 4.799113079,-1.62961423,1.173808707\H,0,3.053614027,-1.916312598,1.160
 804944\H,0,-2.540416453,-2.844981592,-1.014302773\H,0,3.75960642,-0.53
 291794,2.07824618\H,0,3.765323683,-0.52154146,0.273951194\C,0,-2.40154
 2122,-0.705499021,0.492562549\C,0,-1.33365594,0.193207044,1.141270536\
 C,0,0.021967089,-0.47033751,0.950186539\N,0,-1.303304814,1.529148773,0
 .515945207\O,0,0.155929117,-1.611462803,0.51692019\O,0,1.024922388,0.3
 53392554,1.298656\C,0,-2.121889445,-0.918337302,-0.967112723\H,0,-3.39
 229932,-0.247402335,0.596496855\H,0,-2.419176945,-1.669900059,1.004436
 439\H,0,-1.526304416,0.239474424,2.221387894\H,0,-1.503902114,0.960750
 702,-1.170400229\H,0,-0.410560182,1.997532273,0.666150752\H,0,1.924402
 159,-0.039925506,1.230818645\N,0,-1.700457396,0.069239192,-1.694919761
 \O,0,-2.336854815,-2.071648312,-1.575178364\H,0,-2.071900591,2.1285565
 43,0.807834339\H,0,-1.588828199,-0.00501078,-2.289108576\\Version=ES64
 L-G09RevD.01\State=1-A\HF=-532.5394596\RMSD=4.493e-09\Dipole=-1.933206
 ,0.583242,-0.0235791\Quadrupole=8.0137801,-2.1089117,-5.9048684,2.0841
 361,2.4821743,0.5569782\PG=C01 [X(C5H13N2O3)]\\@


 LIFE CAN ONLY BE UNDERSTOOD BACKWARD, BUT MUST
 BE LIVED FORWARD. -- KIRKEGAARD
 Job cpu time:       0 days  0 hours  0 minutes 56.3 seconds.
 File lengths (MBytes):  RWF=      7 Int=      0 D2E=      0 Chk=      2 Scr=      1
 Normal termination of Gaussian 09 at Thu Mar 12 19:01:42 2020.
