 Entering Gaussian System, Link 0=g09
 Input=./h2o_o1h3_18.gjf
 Output=./h2o_o1h3_18.log
 Initial command:
 /usr/local/gaussian09d01/g09/l1.exe "/scr/Gau-18135.inp" -scrdir="/scr/"
 Entering Link 1 = /usr/local/gaussian09d01/g09/l1.exe PID=     18136.
  
 Copyright (c) 1988,1990,1992,1993,1995,1998,2003,2009,2013,
            Gaussian, Inc.  All Rights Reserved.
  
 This is part of the Gaussian(R) 09 program.  It is based on
 the Gaussian(R) 03 system (copyright 2003, Gaussian, Inc.),
 the Gaussian(R) 98 system (copyright 1998, Gaussian, Inc.),
 the Gaussian(R) 94 system (copyright 1995, Gaussian, Inc.),
 the Gaussian 92(TM) system (copyright 1992, Gaussian, Inc.),
 the Gaussian 90(TM) system (copyright 1990, Gaussian, Inc.),
 the Gaussian 88(TM) system (copyright 1988, Gaussian, Inc.),
 the Gaussian 86(TM) system (copyright 1986, Carnegie Mellon
 University), and the Gaussian 82(TM) system (copyright 1983,
 Carnegie Mellon University). Gaussian is a federally registered
 trademark of Gaussian, Inc.
  
 This software contains proprietary and confidential information,
 including trade secrets, belonging to Gaussian, Inc.
  
 This software is provided under written license and may be
 used, copied, transmitted, or stored only in accord with that
 written license.
  
 The following legend is applicable only to US Government
 contracts under FAR:
  
                    RESTRICTED RIGHTS LEGEND
  
 Use, reproduction and disclosure by the US Government is
 subject to restrictions as set forth in subparagraphs (a)
 and (c) of the Commercial Computer Software - Restricted
 Rights clause in FAR 52.227-19.
  
 Gaussian, Inc.
 340 Quinnipiac St., Bldg. 40, Wallingford CT 06492
  
  
 ---------------------------------------------------------------
 Warning -- This program may not be used in any manner that
 competes with the business of Gaussian, Inc. or will provide
 assistance to any competitor of Gaussian, Inc.  The licensee
 of this program is prohibited from giving any competitor of
 Gaussian, Inc. access to this program.  By using this program,
 the user acknowledges that Gaussian, Inc. is engaged in the
 business of creating and licensing software in the field of
 computational chemistry and represents and warrants to the
 licensee that it is not a competitor of Gaussian, Inc. and that
 it will not use this program in any manner prohibited above.
 ---------------------------------------------------------------
  

 Cite this work as:
 Gaussian 09, Revision D.01,
 M. J. Frisch, G. W. Trucks, H. B. Schlegel, G. E. Scuseria, 
 M. A. Robb, J. R. Cheeseman, G. Scalmani, V. Barone, B. Mennucci, 
 G. A. Petersson, H. Nakatsuji, M. Caricato, X. Li, H. P. Hratchian, 
 A. F. Izmaylov, J. Bloino, G. Zheng, J. L. Sonnenberg, M. Hada, 
 M. Ehara, K. Toyota, R. Fukuda, J. Hasegawa, M. Ishida, T. Nakajima, 
 Y. Honda, O. Kitao, H. Nakai, T. Vreven, J. A. Montgomery, Jr., 
 J. E. Peralta, F. Ogliaro, M. Bearpark, J. J. Heyd, E. Brothers, 
 K. N. Kudin, V. N. Staroverov, T. Keith, R. Kobayashi, J. Normand, 
 K. Raghavachari, A. Rendell, J. C. Burant, S. S. Iyengar, J. Tomasi, 
 M. Cossi, N. Rega, J. M. Millam, M. Klene, J. E. Knox, J. B. Cross, 
 V. Bakken, C. Adamo, J. Jaramillo, R. Gomperts, R. E. Stratmann, 
 O. Yazyev, A. J. Austin, R. Cammi, C. Pomelli, J. W. Ochterski, 
 R. L. Martin, K. Morokuma, V. G. Zakrzewski, G. A. Voth, 
 P. Salvador, J. J. Dannenberg, S. Dapprich, A. D. Daniels, 
 O. Farkas, J. B. Foresman, J. V. Ortiz, J. Cioslowski, 
 and D. J. Fox, Gaussian, Inc., Wallingford CT, 2013.
 
 ******************************************
 Gaussian 09:  ES64L-G09RevD.01 24-Apr-2013
                17-Mar-2020 
 ******************************************
 -----------
 #p HF/6-31G
 -----------
 1/38=1/1;
 2/12=2,17=6,18=5,40=1/2;
 3/5=1,6=6,11=9,16=1,25=1,30=1/1,2,3;
 4//1;
 5/5=2,38=5/2;
 6/7=2,8=2,9=2,10=2,28=1/1;
 99/5=1,9=1/99;
 Leave Link    1 at Tue Mar 17 13:43:24 2020, MaxMem=           0 cpu:         0.0
 (Enter /usr/local/gaussian09d01/g09/l101.exe)
 --------
 chk calc
 --------
 Symbolic Z-matrix:
 Charge =  0 Multiplicity = 1
 O                     0.04968   0.28854  -3.40696 
 H                     0.04968   1.04788  -2.81091 
 H                     0.04968  -1.12735  -2.29555 
 
 NAtoms=      3 NQM=        3 NQMF=       0 NMMI=      0 NMMIF=      0
                NMic=       0 NMicF=      0.
                    Isotopes and Nuclear Properties:
 (Nuclear quadrupole moments (NQMom) in fm**2, nuclear magnetic moments (NMagM)
  in nuclear magnetons)

  Atom         1           2           3
 IAtWgt=          16           1           1
 AtmWgt=  15.9949146   1.0078250   1.0078250
 NucSpn=           0           1           1
 AtZEff=   0.0000000   0.0000000   0.0000000
 NQMom=    0.0000000   0.0000000   0.0000000
 NMagM=    0.0000000   2.7928460   2.7928460
 AtZNuc=   8.0000000   1.0000000   1.0000000
 Leave Link  101 at Tue Mar 17 13:43:24 2020, MaxMem=    33554432 cpu:         0.0
 (Enter /usr/local/gaussian09d01/g09/l202.exe)
                          Input orientation:                          
 ---------------------------------------------------------------------
 Center     Atomic      Atomic             Coordinates (Angstroms)
 Number     Number       Type             X           Y           Z
 ---------------------------------------------------------------------
      1          8           0        0.049680    0.288543   -3.406957
      2          1           0        0.049680    1.047880   -2.810914
      3          1           0        0.049680   -1.127354   -2.295546
 ---------------------------------------------------------------------
                    Distance matrix (angstroms):
                    1          2          3
     1  O    0.000000
     2  H    0.965329   0.000000
     3  H    1.800000   2.235453   0.000000
 Stoichiometry    H2O
 Framework group  CS[SG(H2O)]
 Deg. of freedom     3
 Full point group                 CS      NOp   2
 Largest Abelian subgroup         CS      NOp   2
 Largest concise Abelian subgroup C1      NOp   1
                         Standard orientation:                         
 ---------------------------------------------------------------------
 Center     Atomic      Atomic             Coordinates (Angstroms)
 Number     Number       Type             X           Y           Z
 ---------------------------------------------------------------------
      1          8           0        0.000000    0.182934    0.000000
      2          1           0        0.922669   -0.100866    0.000000
      3          1           0       -0.922669   -1.362603    0.000000
 ---------------------------------------------------------------------
 Rotational constants (GHZ):    632.6394603    157.0994132    125.8482916
 Leave Link  202 at Tue Mar 17 13:43:24 2020, MaxMem=    33554432 cpu:         0.0
 (Enter /usr/local/gaussian09d01/g09/l301.exe)
 Standard basis: 6-31G (6D, 7F)
 Ernie: Thresh=  0.10000D-02 Tol=  0.10000D-05 Strict=F.
 There are    11 symmetry adapted cartesian basis functions of A'  symmetry.
 There are     2 symmetry adapted cartesian basis functions of A"  symmetry.
 There are    11 symmetry adapted basis functions of A'  symmetry.
 There are     2 symmetry adapted basis functions of A"  symmetry.
    13 basis functions,    30 primitive gaussians,    13 cartesian basis functions
     5 alpha electrons        5 beta electrons
       nuclear repulsion energy         6.9740855848 Hartrees.
 IExCor=    0 DFT=F Ex=HF Corr=None ExCW=0 ScaHFX=  1.000000
 ScaDFX=  1.000000  1.000000  1.000000  1.000000 ScalE2=  1.000000  1.000000
 IRadAn=      0 IRanWt=     -1 IRanGd=            0 ICorTp=0 IEmpDi=  4
 NAtoms=    3 NActive=    3 NUniq=    3 SFac= 1.00D+00 NAtFMM=   60 NAOKFM=F Big=F
 Integral buffers will be    131072 words long.
 Raffenetti 1 integral format.
 Two-electron integral symmetry is turned on.
 Leave Link  301 at Tue Mar 17 13:43:24 2020, MaxMem=    33554432 cpu:         0.0
 (Enter /usr/local/gaussian09d01/g09/l302.exe)
 NPDir=0 NMtPBC=     1 NCelOv=     1 NCel=       1 NClECP=     1 NCelD=      1
         NCelK=      1 NCelE2=     1 NClLst=     1 CellRange=     0.0.
 One-electron integrals computed using PRISM.
 NBasis=    13 RedAO= T EigKep=  1.19D-01  NBF=    11     2
 NBsUse=    13 1.00D-06 EigRej= -1.00D+00 NBFU=    11     2
 Leave Link  302 at Tue Mar 17 13:43:25 2020, MaxMem=    33554432 cpu:         0.1
 (Enter /usr/local/gaussian09d01/g09/l303.exe)
 DipDrv:  MaxL=1.
 Leave Link  303 at Tue Mar 17 13:43:25 2020, MaxMem=    33554432 cpu:         0.0
 (Enter /usr/local/gaussian09d01/g09/l401.exe)
 ExpMin= 1.61D-01 ExpMax= 5.48D+03 ExpMxC= 8.25D+02 IAcc=1 IRadAn=         1 AccDes= 0.00D+00
 Harris functional with IExCor=  205 and IRadAn=       1 diagonalized for initial guess.
 HarFok:  IExCor=  205 AccDes= 0.00D+00 IRadAn=         1 IDoV= 1 UseB2=F ITyADJ=14
 ICtDFT=  3500011 ScaDFX=  1.000000  1.000000  1.000000  1.000000
 FoFCou: FMM=F IPFlag=           0 FMFlag=      100000 FMFlg1=           0
         NFxFlg=           0 DoJE=T BraDBF=F KetDBF=T FulRan=T
         wScrn=  0.000000 ICntrl=     500 IOpCl=  0 I1Cent=   200000004 NGrid=           0
         NMat0=    1 NMatS0=      1 NMatT0=    0 NMatD0=    1 NMtDS0=    0 NMtDT0=    0
 Petite list used in FoFCou.
 Harris En= -75.9639765681135    
 JPrj=0 DoOrth=F DoCkMO=F.
 Initial guess orbital symmetries:
       Occupied  (A') (A') (A') (A') (A")
       Virtual   (A') (A') (A') (A") (A') (A') (A') (A')
 The electronic state of the initial guess is 1-A'.
 Leave Link  401 at Tue Mar 17 13:43:25 2020, MaxMem=    33554432 cpu:         0.1
 (Enter /usr/local/gaussian09d01/g09/l502.exe)
 Closed shell SCF:
 Using DIIS extrapolation, IDIIS=  1040.
 Integral symmetry usage will be decided dynamically.
 Keep R1 ints in memory in symmetry-blocked form, NReq=829302.
 IVT=       20162 IEndB=       20162 NGot=    33554432 MDV=    33531252
 LenX=    33531252 LenY=    33530370
 Requested convergence on RMS density matrix=1.00D-08 within 128 cycles.
 Requested convergence on MAX density matrix=1.00D-06.
 Requested convergence on             energy=1.00D-06.
 No special actions if energy rises.
 FoFCou: FMM=F IPFlag=           0 FMFlag=           0 FMFlg1=           0
         NFxFlg=           0 DoJE=F BraDBF=F KetDBF=F FulRan=T
         wScrn=  0.000000 ICntrl=     600 IOpCl=  0 I1Cent=           0 NGrid=           0
         NMat0=    1 NMatS0=     91 NMatT0=    0 NMatD0=    1 NMtDS0=    0 NMtDT0=    0
 Petite list used in FoFCou.

 Cycle   1  Pass 1  IDiag  1:
 E= -75.6279343263489    
 DIIS: error= 9.19D-02 at cycle   1 NSaved=   1.
 NSaved= 1 IEnMin= 1 EnMin= -75.6279343263489     IErMin= 1 ErrMin= 9.19D-02
 ErrMax= 9.19D-02  0.00D+00 EMaxC= 1.00D-01 BMatC= 1.69D-01 BMatP= 1.69D-01
 IDIUse=3 WtCom= 8.11D-02 WtEn= 9.19D-01
 Coeff-Com:  0.100D+01
 Coeff-En:   0.100D+01
 Coeff:      0.100D+01
 Gap=     0.149 Goal=   None    Shift=    0.000
 GapD=    0.149 DampG=1.000 DampE=0.500 DampFc=0.5000 IDamp=-1.
 Damping current iteration by 5.00D-01
 RMSDP=4.33D-02 MaxDP=2.41D-01              OVMax= 3.61D-01

 Cycle   2  Pass 1  IDiag  1:
 E= -75.7110426662698     Delta-E=       -0.083108339921 Rises=F Damp=T
 DIIS: error= 2.45D-02 at cycle   2 NSaved=   2.
 NSaved= 2 IEnMin= 2 EnMin= -75.7110426662698     IErMin= 2 ErrMin= 2.45D-02
 ErrMax= 2.45D-02  0.00D+00 EMaxC= 1.00D-01 BMatC= 9.99D-03 BMatP= 1.69D-01
 IDIUse=3 WtCom= 7.55D-01 WtEn= 2.45D-01
 Coeff-Com:  0.226D-01 0.977D+00
 Coeff-En:   0.000D+00 0.100D+01
 Coeff:      0.170D-01 0.983D+00
 Gap=     0.432 Goal=   None    Shift=    0.000
 RMSDP=7.51D-03 MaxDP=3.33D-02 DE=-8.31D-02 OVMax= 1.78D-01

 Cycle   3  Pass 1  IDiag  1:
 E= -75.8028415783317     Delta-E=       -0.091798912062 Rises=F Damp=F
 DIIS: error= 8.88D-03 at cycle   3 NSaved=   3.
 NSaved= 3 IEnMin= 3 EnMin= -75.8028415783317     IErMin= 3 ErrMin= 8.88D-03
 ErrMax= 8.88D-03  0.00D+00 EMaxC= 1.00D-01 BMatC= 9.03D-04 BMatP= 9.99D-03
 IDIUse=3 WtCom= 9.11D-01 WtEn= 8.88D-02
 Coeff-Com:  0.384D-01-0.220D+00 0.118D+01
 Coeff-En:   0.000D+00 0.000D+00 0.100D+01
 Coeff:      0.350D-01-0.201D+00 0.117D+01
 Gap=     0.456 Goal=   None    Shift=    0.000
 RMSDP=2.77D-03 MaxDP=1.21D-02 DE=-9.18D-02 OVMax= 2.29D-02

 Cycle   4  Pass 1  IDiag  1:
 E= -75.8044623828292     Delta-E=       -0.001620804497 Rises=F Damp=F
 DIIS: error= 4.55D-03 at cycle   4 NSaved=   4.
 NSaved= 4 IEnMin= 4 EnMin= -75.8044623828292     IErMin= 4 ErrMin= 4.55D-03
 ErrMax= 4.55D-03  0.00D+00 EMaxC= 1.00D-01 BMatC= 1.84D-04 BMatP= 9.03D-04
 IDIUse=3 WtCom= 9.55D-01 WtEn= 4.55D-02
 Coeff-Com:  0.192D-01 0.256D-02-0.535D+00 0.151D+01
 Coeff-En:   0.000D+00 0.000D+00 0.000D+00 0.100D+01
 Coeff:      0.183D-01 0.244D-02-0.511D+00 0.149D+01
 Gap=     0.456 Goal=   None    Shift=    0.000
 RMSDP=1.40D-03 MaxDP=7.77D-03 DE=-1.62D-03 OVMax= 7.77D-03

 Cycle   5  Pass 1  IDiag  1:
 E= -75.8047328285704     Delta-E=       -0.000270445741 Rises=F Damp=F
 DIIS: error= 2.34D-04 at cycle   5 NSaved=   5.
 NSaved= 5 IEnMin= 5 EnMin= -75.8047328285704     IErMin= 5 ErrMin= 2.34D-04
 ErrMax= 2.34D-04  0.00D+00 EMaxC= 1.00D-01 BMatC= 1.19D-06 BMatP= 1.84D-04
 IDIUse=3 WtCom= 9.98D-01 WtEn= 2.34D-03
 Coeff-Com: -0.577D-02 0.416D-02 0.101D+00-0.376D+00 0.128D+01
 Coeff-En:   0.000D+00 0.000D+00 0.000D+00 0.000D+00 0.100D+01
 Coeff:     -0.576D-02 0.415D-02 0.101D+00-0.375D+00 0.128D+01
 Gap=     0.456 Goal=   None    Shift=    0.000
 RMSDP=1.86D-04 MaxDP=9.34D-04 DE=-2.70D-04 OVMax= 1.43D-03

 Cycle   6  Pass 1  IDiag  1:
 E= -75.8047366880880     Delta-E=       -0.000003859518 Rises=F Damp=F
 DIIS: error= 5.70D-05 at cycle   6 NSaved=   6.
 NSaved= 6 IEnMin= 6 EnMin= -75.8047366880880     IErMin= 6 ErrMin= 5.70D-05
 ErrMax= 5.70D-05  0.00D+00 EMaxC= 1.00D-01 BMatC= 5.92D-08 BMatP= 1.19D-06
 IDIUse=1 WtCom= 1.00D+00 WtEn= 0.00D+00
 Coeff-Com:  0.103D-02-0.114D-02-0.115D-01 0.542D-01-0.354D+00 0.131D+01
 Coeff:      0.103D-02-0.114D-02-0.115D-01 0.542D-01-0.354D+00 0.131D+01
 Gap=     0.456 Goal=   None    Shift=    0.000
 RMSDP=4.14D-05 MaxDP=1.84D-04 DE=-3.86D-06 OVMax= 3.31D-04

 Cycle   7  Pass 1  IDiag  1:
 E= -75.8047369309453     Delta-E=       -0.000000242857 Rises=F Damp=F
 DIIS: error= 2.50D-05 at cycle   7 NSaved=   7.
 NSaved= 7 IEnMin= 7 EnMin= -75.8047369309453     IErMin= 7 ErrMin= 2.50D-05
 ErrMax= 2.50D-05  0.00D+00 EMaxC= 1.00D-01 BMatC= 8.69D-09 BMatP= 5.92D-08
 IDIUse=1 WtCom= 1.00D+00 WtEn= 0.00D+00
 Coeff-Com: -0.162D-03 0.224D-03 0.925D-06-0.699D-02 0.151D+00-0.951D+00
 Coeff-Com:  0.181D+01
 Coeff:     -0.162D-03 0.224D-03 0.925D-06-0.699D-02 0.151D+00-0.951D+00
 Coeff:      0.181D+01
 Gap=     0.456 Goal=   None    Shift=    0.000
 RMSDP=2.08D-05 MaxDP=9.07D-05 DE=-2.43D-07 OVMax= 2.23D-04

 Cycle   8  Pass 1  IDiag  1:
 E= -75.8047369819822     Delta-E=       -0.000000051037 Rises=F Damp=F
 DIIS: error= 6.58D-06 at cycle   8 NSaved=   8.
 NSaved= 8 IEnMin= 8 EnMin= -75.8047369819822     IErMin= 8 ErrMin= 6.58D-06
 ErrMax= 6.58D-06  0.00D+00 EMaxC= 1.00D-01 BMatC= 6.21D-10 BMatP= 8.69D-09
 IDIUse=1 WtCom= 1.00D+00 WtEn= 0.00D+00
 Coeff-Com:  0.676D-04-0.132D-03 0.543D-03 0.188D-02-0.757D-01 0.539D+00
 Coeff-Com: -0.124D+01 0.177D+01
 Coeff:      0.676D-04-0.132D-03 0.543D-03 0.188D-02-0.757D-01 0.539D+00
 Coeff:     -0.124D+01 0.177D+01
 Gap=     0.456 Goal=   None    Shift=    0.000
 RMSDP=6.98D-06 MaxDP=2.33D-05 DE=-5.10D-08 OVMax= 7.29D-05

 Cycle   9  Pass 1  IDiag  1:
 E= -75.8047369859808     Delta-E=       -0.000000003999 Rises=F Damp=F
 DIIS: error= 1.60D-06 at cycle   9 NSaved=   9.
 NSaved= 9 IEnMin= 9 EnMin= -75.8047369859808     IErMin= 9 ErrMin= 1.60D-06
 ErrMax= 1.60D-06  0.00D+00 EMaxC= 1.00D-01 BMatC= 2.06D-11 BMatP= 6.21D-10
 IDIUse=1 WtCom= 1.00D+00 WtEn= 0.00D+00
 Coeff-Com: -0.144D-04 0.339D-04-0.256D-03-0.475D-03 0.267D-01-0.199D+00
 Coeff-Com:  0.468D+00-0.790D+00 0.150D+01
 Coeff:     -0.144D-04 0.339D-04-0.256D-03-0.475D-03 0.267D-01-0.199D+00
 Coeff:      0.468D+00-0.790D+00 0.150D+01
 Gap=     0.456 Goal=   None    Shift=    0.000
 RMSDP=1.03D-06 MaxDP=3.23D-06 DE=-4.00D-09 OVMax= 9.27D-06

 Cycle  10  Pass 1  IDiag  1:
 E= -75.8047369860505     Delta-E=       -0.000000000070 Rises=F Damp=F
 DIIS: error= 1.62D-07 at cycle  10 NSaved=  10.
 NSaved=10 IEnMin=10 EnMin= -75.8047369860505     IErMin=10 ErrMin= 1.62D-07
 ErrMax= 1.62D-07  0.00D+00 EMaxC= 1.00D-01 BMatC= 5.35D-13 BMatP= 2.06D-11
 IDIUse=1 WtCom= 1.00D+00 WtEn= 0.00D+00
 Coeff-Com: -0.776D-07-0.119D-05 0.320D-04 0.718D-04-0.349D-02 0.270D-01
 Coeff-Com: -0.634D-01 0.117D+00-0.269D+00 0.119D+01
 Coeff:     -0.776D-07-0.119D-05 0.320D-04 0.718D-04-0.349D-02 0.270D-01
 Coeff:     -0.634D-01 0.117D+00-0.269D+00 0.119D+01
 Gap=     0.456 Goal=   None    Shift=    0.000
 RMSDP=5.77D-08 MaxDP=3.28D-07 DE=-6.97D-11 OVMax= 4.96D-07

 Cycle  11  Pass 1  IDiag  1:
 E= -75.8047369860510     Delta-E=       -0.000000000001 Rises=F Damp=F
 DIIS: error= 1.12D-08 at cycle  11 NSaved=  11.
 NSaved=11 IEnMin=11 EnMin= -75.8047369860510     IErMin=11 ErrMin= 1.12D-08
 ErrMax= 1.12D-08  0.00D+00 EMaxC= 1.00D-01 BMatC= 2.80D-15 BMatP= 5.35D-13
 IDIUse=1 WtCom= 1.00D+00 WtEn= 0.00D+00
 Coeff-Com:  0.687D-07 0.218D-06-0.713D-05-0.235D-04 0.918D-03-0.706D-02
 Coeff-Com:  0.166D-01-0.311D-01 0.749D-01-0.408D+00 0.135D+01
 Coeff:      0.687D-07 0.218D-06-0.713D-05-0.235D-04 0.918D-03-0.706D-02
 Coeff:      0.166D-01-0.311D-01 0.749D-01-0.408D+00 0.135D+01
 Gap=     0.456 Goal=   None    Shift=    0.000
 RMSDP=9.51D-09 MaxDP=3.39D-08 DE=-5.68D-13 OVMax= 8.41D-08

 SCF Done:  E(RHF) =  -75.8047369861     A.U. after   11 cycles
            NFock= 11  Conv=0.95D-08     -V/T= 2.0055
 KE= 7.539294096507D+01 PE=-1.940162163661D+02 EE= 3.584445283018D+01
 Leave Link  502 at Tue Mar 17 13:43:25 2020, MaxMem=    33554432 cpu:         0.1
 (Enter /usr/local/gaussian09d01/g09/l601.exe)
 Copying SCF densities to generalized density rwf, IOpCl= 0 IROHF=0.

 **********************************************************************

            Population analysis using the SCF density.

 **********************************************************************

 Orbital symmetries:
       Occupied  (A') (A') (A') (A") (A')
       Virtual   (A') (A') (A') (A') (A") (A') (A') (A')
 The electronic state is 1-A'.
 Alpha  occ. eigenvalues --  -20.61319  -1.28772  -0.61963  -0.50268  -0.44396
 Alpha virt. eigenvalues --    0.01214   0.24676   0.97177   1.12507   1.16171
 Alpha virt. eigenvalues --    1.22501   1.30232   1.56692
          Condensed to atoms (all electrons):
               1          2          3
     1  O    8.207710   0.213981   0.177473
     2  H    0.213981   0.391030  -0.004824
     3  H    0.177473  -0.004824   0.628001
 Mulliken charges:
               1
     1  O   -0.599164
     2  H    0.399813
     3  H    0.199350
 Sum of Mulliken charges =   0.00000
 Mulliken charges with hydrogens summed into heavy atoms:
               1
     1  O    0.000000
 Electronic spatial extent (au):  <R**2>=             26.4451
 Charge=              0.0000 electrons
 Dipole moment (field-independent basis, Debye):
    X=              1.0342    Y=             -2.2901    Z=              0.0000  Tot=              2.5128
 Quadrupole moment (field-independent basis, Debye-Ang):
   XX=             -4.4215   YY=             -4.9007   ZZ=             -7.8164
   XY=              1.6638   XZ=              0.0000   YZ=              0.0000
 Traceless Quadrupole moment (field-independent basis, Debye-Ang):
   XX=              1.2914   YY=              0.8121   ZZ=             -2.1036
   XY=              1.6638   XZ=              0.0000   YZ=              0.0000
 Octapole moment (field-independent basis, Debye-Ang**2):
  XXX=              2.1906  YYY=             -2.5011  ZZZ=              0.0000  XYY=             -1.8241
  XXY=             -1.3936  XXZ=              0.0000  XZZ=              0.6523  YZZ=              0.3242
  YYZ=              0.0000  XYZ=              0.0000
 Hexadecapole moment (field-independent basis, Debye-Ang**3):
 XXXX=             -9.6374 YYYY=            -11.6782 ZZZZ=             -6.0050 XXXY=             -1.9022
 XXXZ=              0.0000 YYYX=              0.3783 YYYZ=              0.0000 ZZZX=              0.0000
 ZZZY=              0.0000 XXYY=             -2.3430 XXZZ=             -3.0501 YYZZ=             -3.9104
 XXYZ=              0.0000 YYXZ=              0.0000 ZZXY=             -1.1402
 N-N= 6.974085584844D+00 E-N=-1.940162162912D+02  KE= 7.539294096507D+01
 Symmetry A'   KE= 7.066252488942D+01
 Symmetry A"   KE= 4.730416075650D+00
 No NMR shielding tensors so no spin-rotation constants.
 Leave Link  601 at Tue Mar 17 13:43:25 2020, MaxMem=    33554432 cpu:         0.1
 (Enter /usr/local/gaussian09d01/g09/l9999.exe)
 1\1\GINC-KARURA\SP\RHF\6-31G\H2O1\RTAKE\17-Mar-2020\0\\#p HF/6-31G\\ch
 k calc\\0,1\O,0,0.049680185,0.288543143,-3.406957499\H,0,0.049680185,1
 .047880143,-2.810914499\H,0,0.049680185,-1.127354135,-2.295546279\\Ver
 sion=ES64L-G09RevD.01\State=1-A'\HF=-75.804737\RMSD=9.515e-09\Dipole=0
 .,0.0564202,0.9870018\Quadrupole=-1.5639412,1.7430292,-0.1790881,0.,0.
 ,-0.7989692\PG=CS [SG(H2O1)]\\@


 A SCIENTIST IS SOMEONE WHOSE CURIOSITY SURVIVES
 EDUCATION'S ASSAULTS ON IT.
                          - SIR HERMANN BONDI
 Job cpu time:       0 days  0 hours  0 minutes  0.4 seconds.
 File lengths (MBytes):  RWF=      5 Int=      0 D2E=      0 Chk=      1 Scr=      1
 Normal termination of Gaussian 09 at Tue Mar 17 13:43:25 2020.
