 Entering Gaussian System, Link 0=g09
 Input=./h2o_o1h3_12.gjf
 Output=./h2o_o1h3_12.log
 Initial command:
 /usr/local/gaussian09d01/g09/l1.exe "/scr/Gau-18121.inp" -scrdir="/scr/"
 Entering Link 1 = /usr/local/gaussian09d01/g09/l1.exe PID=     18122.
  
 Copyright (c) 1988,1990,1992,1993,1995,1998,2003,2009,2013,
            Gaussian, Inc.  All Rights Reserved.
  
 This is part of the Gaussian(R) 09 program.  It is based on
 the Gaussian(R) 03 system (copyright 2003, Gaussian, Inc.),
 the Gaussian(R) 98 system (copyright 1998, Gaussian, Inc.),
 the Gaussian(R) 94 system (copyright 1995, Gaussian, Inc.),
 the Gaussian 92(TM) system (copyright 1992, Gaussian, Inc.),
 the Gaussian 90(TM) system (copyright 1990, Gaussian, Inc.),
 the Gaussian 88(TM) system (copyright 1988, Gaussian, Inc.),
 the Gaussian 86(TM) system (copyright 1986, Carnegie Mellon
 University), and the Gaussian 82(TM) system (copyright 1983,
 Carnegie Mellon University). Gaussian is a federally registered
 trademark of Gaussian, Inc.
  
 This software contains proprietary and confidential information,
 including trade secrets, belonging to Gaussian, Inc.
  
 This software is provided under written license and may be
 used, copied, transmitted, or stored only in accord with that
 written license.
  
 The following legend is applicable only to US Government
 contracts under FAR:
  
                    RESTRICTED RIGHTS LEGEND
  
 Use, reproduction and disclosure by the US Government is
 subject to restrictions as set forth in subparagraphs (a)
 and (c) of the Commercial Computer Software - Restricted
 Rights clause in FAR 52.227-19.
  
 Gaussian, Inc.
 340 Quinnipiac St., Bldg. 40, Wallingford CT 06492
  
  
 ---------------------------------------------------------------
 Warning -- This program may not be used in any manner that
 competes with the business of Gaussian, Inc. or will provide
 assistance to any competitor of Gaussian, Inc.  The licensee
 of this program is prohibited from giving any competitor of
 Gaussian, Inc. access to this program.  By using this program,
 the user acknowledges that Gaussian, Inc. is engaged in the
 business of creating and licensing software in the field of
 computational chemistry and represents and warrants to the
 licensee that it is not a competitor of Gaussian, Inc. and that
 it will not use this program in any manner prohibited above.
 ---------------------------------------------------------------
  

 Cite this work as:
 Gaussian 09, Revision D.01,
 M. J. Frisch, G. W. Trucks, H. B. Schlegel, G. E. Scuseria, 
 M. A. Robb, J. R. Cheeseman, G. Scalmani, V. Barone, B. Mennucci, 
 G. A. Petersson, H. Nakatsuji, M. Caricato, X. Li, H. P. Hratchian, 
 A. F. Izmaylov, J. Bloino, G. Zheng, J. L. Sonnenberg, M. Hada, 
 M. Ehara, K. Toyota, R. Fukuda, J. Hasegawa, M. Ishida, T. Nakajima, 
 Y. Honda, O. Kitao, H. Nakai, T. Vreven, J. A. Montgomery, Jr., 
 J. E. Peralta, F. Ogliaro, M. Bearpark, J. J. Heyd, E. Brothers, 
 K. N. Kudin, V. N. Staroverov, T. Keith, R. Kobayashi, J. Normand, 
 K. Raghavachari, A. Rendell, J. C. Burant, S. S. Iyengar, J. Tomasi, 
 M. Cossi, N. Rega, J. M. Millam, M. Klene, J. E. Knox, J. B. Cross, 
 V. Bakken, C. Adamo, J. Jaramillo, R. Gomperts, R. E. Stratmann, 
 O. Yazyev, A. J. Austin, R. Cammi, C. Pomelli, J. W. Ochterski, 
 R. L. Martin, K. Morokuma, V. G. Zakrzewski, G. A. Voth, 
 P. Salvador, J. J. Dannenberg, S. Dapprich, A. D. Daniels, 
 O. Farkas, J. B. Foresman, J. V. Ortiz, J. Cioslowski, 
 and D. J. Fox, Gaussian, Inc., Wallingford CT, 2013.
 
 ******************************************
 Gaussian 09:  ES64L-G09RevD.01 24-Apr-2013
                17-Mar-2020 
 ******************************************
 -----------
 #p HF/6-31G
 -----------
 1/38=1/1;
 2/12=2,17=6,18=5,40=1/2;
 3/5=1,6=6,11=9,16=1,25=1,30=1/1,2,3;
 4//1;
 5/5=2,38=5/2;
 6/7=2,8=2,9=2,10=2,28=1/1;
 99/5=1,9=1/99;
 Leave Link    1 at Tue Mar 17 13:43:22 2020, MaxMem=           0 cpu:         0.0
 (Enter /usr/local/gaussian09d01/g09/l101.exe)
 --------
 chk calc
 --------
 Symbolic Z-matrix:
 Charge =  0 Multiplicity = 1
 O                     0.04968   0.05256  -3.22172 
 H                     0.04968   0.8119   -2.62568 
 H                     0.04968  -0.89137  -2.48078 
 
 NAtoms=      3 NQM=        3 NQMF=       0 NMMI=      0 NMMIF=      0
                NMic=       0 NMicF=      0.
                    Isotopes and Nuclear Properties:
 (Nuclear quadrupole moments (NQMom) in fm**2, nuclear magnetic moments (NMagM)
  in nuclear magnetons)

  Atom         1           2           3
 IAtWgt=          16           1           1
 AtmWgt=  15.9949146   1.0078250   1.0078250
 NucSpn=           0           1           1
 AtZEff=   0.0000000   0.0000000   0.0000000
 NQMom=    0.0000000   0.0000000   0.0000000
 NMagM=    0.0000000   2.7928460   2.7928460
 AtZNuc=   8.0000000   1.0000000   1.0000000
 Leave Link  101 at Tue Mar 17 13:43:22 2020, MaxMem=    33554432 cpu:         0.0
 (Enter /usr/local/gaussian09d01/g09/l202.exe)
                          Input orientation:                          
 ---------------------------------------------------------------------
 Center     Atomic      Atomic             Coordinates (Angstroms)
 Number     Number       Type             X           Y           Z
 ---------------------------------------------------------------------
      1          8           0        0.049680    0.052560   -3.221722
      2          1           0        0.049680    0.811897   -2.625679
      3          1           0        0.049680   -0.891371   -2.480781
 ---------------------------------------------------------------------
                    Distance matrix (angstroms):
                    1          2          3
     1  O    0.000000
     2  H    0.965329   0.000000
     3  H    1.200000   1.709421   0.000000
 Stoichiometry    H2O
 Framework group  CS[SG(H2O)]
 Deg. of freedom     3
 Full point group                 CS      NOp   2
 Largest Abelian subgroup         CS      NOp   2
 Largest concise Abelian subgroup C1      NOp   1
                         Standard orientation:                         
 ---------------------------------------------------------------------
 Center     Atomic      Atomic             Coordinates (Angstroms)
 Number     Number       Type             X           Y           Z
 ---------------------------------------------------------------------
      1          8           0        0.000000    0.134967    0.000000
      2          1           0        0.833722   -0.351620    0.000000
      3          1           0       -0.833722   -0.728113    0.000000
 ---------------------------------------------------------------------
 Rotational constants (GHZ):    686.5412625    325.7217162    220.9123548
 Leave Link  202 at Tue Mar 17 13:43:22 2020, MaxMem=    33554432 cpu:         0.0
 (Enter /usr/local/gaussian09d01/g09/l301.exe)
 Standard basis: 6-31G (6D, 7F)
 Ernie: Thresh=  0.10000D-02 Tol=  0.10000D-05 Strict=F.
 There are    11 symmetry adapted cartesian basis functions of A'  symmetry.
 There are     2 symmetry adapted cartesian basis functions of A"  symmetry.
 There are    11 symmetry adapted basis functions of A'  symmetry.
 There are     2 symmetry adapted basis functions of A"  symmetry.
    13 basis functions,    30 primitive gaussians,    13 cartesian basis functions
     5 alpha electrons        5 beta electrons
       nuclear repulsion energy         8.2228797897 Hartrees.
 IExCor=    0 DFT=F Ex=HF Corr=None ExCW=0 ScaHFX=  1.000000
 ScaDFX=  1.000000  1.000000  1.000000  1.000000 ScalE2=  1.000000  1.000000
 IRadAn=      0 IRanWt=     -1 IRanGd=            0 ICorTp=0 IEmpDi=  4
 NAtoms=    3 NActive=    3 NUniq=    3 SFac= 1.00D+00 NAtFMM=   60 NAOKFM=F Big=F
 Integral buffers will be    131072 words long.
 Raffenetti 1 integral format.
 Two-electron integral symmetry is turned on.
 Leave Link  301 at Tue Mar 17 13:43:22 2020, MaxMem=    33554432 cpu:         0.0
 (Enter /usr/local/gaussian09d01/g09/l302.exe)
 NPDir=0 NMtPBC=     1 NCelOv=     1 NCel=       1 NClECP=     1 NCelD=      1
         NCelK=      1 NCelE2=     1 NClLst=     1 CellRange=     0.0.
 One-electron integrals computed using PRISM.
 NBasis=    13 RedAO= T EigKep=  1.12D-01  NBF=    11     2
 NBsUse=    13 1.00D-06 EigRej= -1.00D+00 NBFU=    11     2
 Leave Link  302 at Tue Mar 17 13:43:22 2020, MaxMem=    33554432 cpu:         0.1
 (Enter /usr/local/gaussian09d01/g09/l303.exe)
 DipDrv:  MaxL=1.
 Leave Link  303 at Tue Mar 17 13:43:22 2020, MaxMem=    33554432 cpu:         0.0
 (Enter /usr/local/gaussian09d01/g09/l401.exe)
 ExpMin= 1.61D-01 ExpMax= 5.48D+03 ExpMxC= 8.25D+02 IAcc=1 IRadAn=         1 AccDes= 0.00D+00
 Harris functional with IExCor=  205 and IRadAn=       1 diagonalized for initial guess.
 HarFok:  IExCor=  205 AccDes= 0.00D+00 IRadAn=         1 IDoV= 1 UseB2=F ITyADJ=14
 ICtDFT=  3500011 ScaDFX=  1.000000  1.000000  1.000000  1.000000
 FoFCou: FMM=F IPFlag=           0 FMFlag=      100000 FMFlg1=           0
         NFxFlg=           0 DoJE=T BraDBF=F KetDBF=T FulRan=T
         wScrn=  0.000000 ICntrl=     500 IOpCl=  0 I1Cent=   200000004 NGrid=           0
         NMat0=    1 NMatS0=      1 NMatT0=    0 NMatD0=    1 NMtDS0=    0 NMtDT0=    0
 Petite list used in FoFCou.
 Harris En= -76.0578817210452    
 JPrj=0 DoOrth=F DoCkMO=F.
 Initial guess orbital symmetries:
       Occupied  (A') (A') (A') (A') (A")
       Virtual   (A') (A') (A') (A") (A') (A') (A') (A')
 The electronic state of the initial guess is 1-A'.
 Leave Link  401 at Tue Mar 17 13:43:22 2020, MaxMem=    33554432 cpu:         0.1
 (Enter /usr/local/gaussian09d01/g09/l502.exe)
 Closed shell SCF:
 Using DIIS extrapolation, IDIIS=  1040.
 Integral symmetry usage will be decided dynamically.
 Keep R1 ints in memory in symmetry-blocked form, NReq=829401.
 IVT=       20162 IEndB=       20162 NGot=    33554432 MDV=    33531252
 LenX=    33531252 LenY=    33530370
 Requested convergence on RMS density matrix=1.00D-08 within 128 cycles.
 Requested convergence on MAX density matrix=1.00D-06.
 Requested convergence on             energy=1.00D-06.
 No special actions if energy rises.
 FoFCou: FMM=F IPFlag=           0 FMFlag=           0 FMFlg1=           0
         NFxFlg=           0 DoJE=F BraDBF=F KetDBF=F FulRan=T
         wScrn=  0.000000 ICntrl=     600 IOpCl=  0 I1Cent=           0 NGrid=           0
         NMat0=    1 NMatS0=     91 NMatT0=    0 NMatD0=    1 NMtDS0=    0 NMtDT0=    0
 Petite list used in FoFCou.

 Cycle   1  Pass 1  IDiag  1:
 E= -75.8603112732273    
 DIIS: error= 7.90D-02 at cycle   1 NSaved=   1.
 NSaved= 1 IEnMin= 1 EnMin= -75.8603112732273     IErMin= 1 ErrMin= 7.90D-02
 ErrMax= 7.90D-02  0.00D+00 EMaxC= 1.00D-01 BMatC= 1.11D-01 BMatP= 1.11D-01
 IDIUse=3 WtCom= 2.10D-01 WtEn= 7.90D-01
 Coeff-Com:  0.100D+01
 Coeff-En:   0.100D+01
 Coeff:      0.100D+01
 Gap=     0.510 Goal=   None    Shift=    0.000
 GapD=    0.510 DampG=2.000 DampE=0.500 DampFc=1.0000 IDamp=-1.
 RMSDP=2.45D-02 MaxDP=1.30D-01              OVMax= 1.44D-01

 Cycle   2  Pass 1  IDiag  1:
 E= -75.9107387784386     Delta-E=       -0.050427505211 Rises=F Damp=F
 DIIS: error= 6.10D-02 at cycle   2 NSaved=   2.
 NSaved= 2 IEnMin= 2 EnMin= -75.9107387784386     IErMin= 2 ErrMin= 6.10D-02
 ErrMax= 6.10D-02  0.00D+00 EMaxC= 1.00D-01 BMatC= 5.03D-02 BMatP= 1.11D-01
 IDIUse=3 WtCom= 3.90D-01 WtEn= 6.10D-01
 Coeff-Com:  0.394D+00 0.606D+00
 Coeff-En:   0.204D+00 0.796D+00
 Coeff:      0.278D+00 0.722D+00
 Gap=     0.664 Goal=   None    Shift=    0.000
 RMSDP=1.28D-02 MaxDP=6.64D-02 DE=-5.04D-02 OVMax= 4.76D-02

 Cycle   3  Pass 1  IDiag  1:
 E= -75.9449313107854     Delta-E=       -0.034192532347 Rises=F Damp=F
 DIIS: error= 1.16D-02 at cycle   3 NSaved=   3.
 NSaved= 3 IEnMin= 3 EnMin= -75.9449313107854     IErMin= 3 ErrMin= 1.16D-02
 ErrMax= 1.16D-02  0.00D+00 EMaxC= 1.00D-01 BMatC= 1.98D-03 BMatP= 5.03D-02
 IDIUse=3 WtCom= 8.84D-01 WtEn= 1.16D-01
 Coeff-Com: -0.439D-01 0.120D+00 0.924D+00
 Coeff-En:   0.000D+00 0.000D+00 0.100D+01
 Coeff:     -0.388D-01 0.106D+00 0.933D+00
 Gap=     0.648 Goal=   None    Shift=    0.000
 RMSDP=2.31D-03 MaxDP=1.32D-02 DE=-3.42D-02 OVMax= 1.48D-02

 Cycle   4  Pass 1  IDiag  1:
 E= -75.9466553517567     Delta-E=       -0.001724040971 Rises=F Damp=F
 DIIS: error= 2.30D-03 at cycle   4 NSaved=   4.
 NSaved= 4 IEnMin= 4 EnMin= -75.9466553517567     IErMin= 4 ErrMin= 2.30D-03
 ErrMax= 2.30D-03  0.00D+00 EMaxC= 1.00D-01 BMatC= 4.18D-05 BMatP= 1.98D-03
 IDIUse=3 WtCom= 9.77D-01 WtEn= 2.30D-02
 Coeff-Com:  0.114D-01-0.837D-01-0.338D+00 0.141D+01
 Coeff-En:   0.000D+00 0.000D+00 0.000D+00 0.100D+01
 Coeff:      0.111D-01-0.817D-01-0.330D+00 0.140D+01
 Gap=     0.655 Goal=   None    Shift=    0.000
 RMSDP=5.34D-04 MaxDP=3.53D-03 DE=-1.72D-03 OVMax= 2.41D-03

 Cycle   5  Pass 1  IDiag  1:
 E= -75.9467051655998     Delta-E=       -0.000049813843 Rises=F Damp=F
 DIIS: error= 1.95D-04 at cycle   5 NSaved=   5.
 NSaved= 5 IEnMin= 5 EnMin= -75.9467051655998     IErMin= 5 ErrMin= 1.95D-04
 ErrMax= 1.95D-04  0.00D+00 EMaxC= 1.00D-01 BMatC= 3.30D-07 BMatP= 4.18D-05
 IDIUse=3 WtCom= 9.98D-01 WtEn= 1.95D-03
 Coeff-Com: -0.267D-02 0.254D-01 0.935D-01-0.512D+00 0.140D+01
 Coeff-En:   0.000D+00 0.000D+00 0.000D+00 0.000D+00 0.100D+01
 Coeff:     -0.267D-02 0.254D-01 0.933D-01-0.511D+00 0.140D+01
 Gap=     0.655 Goal=   None    Shift=    0.000
 RMSDP=9.68D-05 MaxDP=4.55D-04 DE=-4.98D-05 OVMax= 6.74D-04

 Cycle   6  Pass 1  IDiag  1:
 E= -75.9467060597911     Delta-E=       -0.000000894191 Rises=F Damp=F
 DIIS: error= 2.32D-05 at cycle   6 NSaved=   6.
 NSaved= 6 IEnMin= 6 EnMin= -75.9467060597911     IErMin= 6 ErrMin= 2.32D-05
 ErrMax= 2.32D-05  0.00D+00 EMaxC= 1.00D-01 BMatC= 9.00D-09 BMatP= 3.30D-07
 IDIUse=1 WtCom= 1.00D+00 WtEn= 0.00D+00
 Coeff-Com:  0.100D-02-0.103D-01-0.371D-01 0.221D+00-0.678D+00 0.150D+01
 Coeff:      0.100D-02-0.103D-01-0.371D-01 0.221D+00-0.678D+00 0.150D+01
 Gap=     0.655 Goal=   None    Shift=    0.000
 RMSDP=1.60D-05 MaxDP=7.42D-05 DE=-8.94D-07 OVMax= 9.90D-05

 Cycle   7  Pass 1  IDiag  1:
 E= -75.9467060884061     Delta-E=       -0.000000028615 Rises=F Damp=F
 DIIS: error= 6.31D-06 at cycle   7 NSaved=   7.
 NSaved= 7 IEnMin= 7 EnMin= -75.9467060884061     IErMin= 7 ErrMin= 6.31D-06
 ErrMax= 6.31D-06  0.00D+00 EMaxC= 1.00D-01 BMatC= 6.54D-10 BMatP= 9.00D-09
 IDIUse=1 WtCom= 1.00D+00 WtEn= 0.00D+00
 Coeff-Com: -0.113D-03 0.144D-02 0.500D-02-0.375D-01 0.134D+00-0.513D+00
 Coeff-Com:  0.141D+01
 Coeff:     -0.113D-03 0.144D-02 0.500D-02-0.375D-01 0.134D+00-0.513D+00
 Coeff:      0.141D+01
 Gap=     0.655 Goal=   None    Shift=    0.000
 RMSDP=4.10D-06 MaxDP=1.84D-05 DE=-2.86D-08 OVMax= 2.90D-05

 Cycle   8  Pass 1  IDiag  1:
 E= -75.9467060902586     Delta-E=       -0.000000001853 Rises=F Damp=F
 DIIS: error= 9.44D-07 at cycle   8 NSaved=   8.
 NSaved= 8 IEnMin= 8 EnMin= -75.9467060902586     IErMin= 8 ErrMin= 9.44D-07
 ErrMax= 9.44D-07  0.00D+00 EMaxC= 1.00D-01 BMatC= 1.20D-11 BMatP= 6.54D-10
 IDIUse=1 WtCom= 1.00D+00 WtEn= 0.00D+00
 Coeff-Com: -0.161D-04 0.563D-04 0.295D-03 0.102D-02-0.892D-02 0.824D-01
 Coeff-Com: -0.388D+00 0.131D+01
 Coeff:     -0.161D-04 0.563D-04 0.295D-03 0.102D-02-0.892D-02 0.824D-01
 Coeff:     -0.388D+00 0.131D+01
 Gap=     0.655 Goal=   None    Shift=    0.000
 RMSDP=6.76D-07 MaxDP=2.14D-06 DE=-1.85D-09 OVMax= 4.05D-06

 Cycle   9  Pass 1  IDiag  1:
 E= -75.9467060903008     Delta-E=       -0.000000000042 Rises=F Damp=F
 DIIS: error= 2.02D-07 at cycle   9 NSaved=   9.
 NSaved= 9 IEnMin= 9 EnMin= -75.9467060903008     IErMin= 9 ErrMin= 2.02D-07
 ErrMax= 2.02D-07  0.00D+00 EMaxC= 1.00D-01 BMatC= 4.63D-13 BMatP= 1.20D-11
 IDIUse=1 WtCom= 1.00D+00 WtEn= 0.00D+00
 Coeff-Com:  0.539D-05-0.166D-04-0.905D-04-0.421D-03 0.315D-02-0.271D-01
 Coeff-Com:  0.128D+00-0.559D+00 0.145D+01
 Coeff:      0.539D-05-0.166D-04-0.905D-04-0.421D-03 0.315D-02-0.271D-01
 Coeff:      0.128D+00-0.559D+00 0.145D+01
 Gap=     0.655 Goal=   None    Shift=    0.000
 RMSDP=1.56D-07 MaxDP=5.81D-07 DE=-4.22D-11 OVMax= 9.75D-07

 Cycle  10  Pass 1  IDiag  1:
 E= -75.9467060903025     Delta-E=       -0.000000000002 Rises=F Damp=F
 DIIS: error= 2.44D-08 at cycle  10 NSaved=  10.
 NSaved=10 IEnMin=10 EnMin= -75.9467060903025     IErMin=10 ErrMin= 2.44D-08
 ErrMax= 2.44D-08  0.00D+00 EMaxC= 1.00D-01 BMatC= 9.36D-15 BMatP= 4.63D-13
 IDIUse=1 WtCom= 1.00D+00 WtEn= 0.00D+00
 Coeff-Com: -0.106D-05 0.111D-05 0.113D-04 0.172D-03-0.963D-03 0.703D-02
 Coeff-Com: -0.325D-01 0.154D+00-0.496D+00 0.137D+01
 Coeff:     -0.106D-05 0.111D-05 0.113D-04 0.172D-03-0.963D-03 0.703D-02
 Coeff:     -0.325D-01 0.154D+00-0.496D+00 0.137D+01
 Gap=     0.655 Goal=   None    Shift=    0.000
 RMSDP=1.43D-08 MaxDP=5.53D-08 DE=-1.71D-12 OVMax= 8.77D-08

 Cycle  11  Pass 1  IDiag  1:
 E= -75.9467060903025     Delta-E=        0.000000000000 Rises=F Damp=F
 DIIS: error= 3.41D-09 at cycle  11 NSaved=  11.
 NSaved=11 IEnMin=10 EnMin= -75.9467060903025     IErMin=11 ErrMin= 3.41D-09
 ErrMax= 3.41D-09  0.00D+00 EMaxC= 1.00D-01 BMatC= 1.58D-16 BMatP= 9.36D-15
 IDIUse=1 WtCom= 1.00D+00 WtEn= 0.00D+00
 Coeff-Com:  0.172D-06-0.461D-06-0.270D-05-0.153D-04 0.103D-03-0.845D-03
 Coeff-Com:  0.430D-02-0.227D-01 0.848D-01-0.311D+00 0.125D+01
 Coeff:      0.172D-06-0.461D-06-0.270D-05-0.153D-04 0.103D-03-0.845D-03
 Coeff:      0.430D-02-0.227D-01 0.848D-01-0.311D+00 0.125D+01
 Gap=     0.655 Goal=   None    Shift=    0.000
 RMSDP=1.96D-09 MaxDP=8.58D-09 DE= 0.00D+00 OVMax= 1.26D-08

 SCF Done:  E(RHF) =  -75.9467060903     A.U. after   11 cycles
            NFock= 11  Conv=0.20D-08     -V/T= 2.0041
 KE= 7.563738021736D+01 PE=-1.968113332938D+02 EE= 3.700436719649D+01
 Leave Link  502 at Tue Mar 17 13:43:22 2020, MaxMem=    33554432 cpu:         0.1
 (Enter /usr/local/gaussian09d01/g09/l601.exe)
 Copying SCF densities to generalized density rwf, IOpCl= 0 IROHF=0.

 **********************************************************************

            Population analysis using the SCF density.

 **********************************************************************

 Orbital symmetries:
       Occupied  (A') (A') (A') (A') (A")
       Virtual   (A') (A') (A') (A') (A") (A') (A') (A')
 The electronic state is 1-A'.
 Alpha  occ. eigenvalues --  -20.58372  -1.31110  -0.65190  -0.53785  -0.49804
 Alpha virt. eigenvalues --    0.15742   0.26997   0.96615   1.12168   1.16361
 Alpha virt. eigenvalues --    1.22710   1.37060   1.67710
          Condensed to atoms (all electrons):
               1          2          3
     1  O    8.295051   0.235037   0.234740
     2  H    0.235037   0.387899  -0.023770
     3  H    0.234740  -0.023770   0.425036
 Mulliken charges:
               1
     1  O   -0.764828
     2  H    0.400833
     3  H    0.363994
 Sum of Mulliken charges =   0.00000
 Mulliken charges with hydrogens summed into heavy atoms:
               1
     1  O    0.000000
 Electronic spatial extent (au):  <R**2>=             20.9122
 Charge=              0.0000 electrons
 Dipole moment (field-independent basis, Debye):
    X=              0.3246    Y=             -2.6376    Z=              0.0000  Tot=              2.6575
 Quadrupole moment (field-independent basis, Debye-Ang):
   XX=             -4.1404   YY=             -6.0049   ZZ=             -7.4648
   XY=              0.6048   XZ=              0.0000   YZ=              0.0000
 Traceless Quadrupole moment (field-independent basis, Debye-Ang):
   XX=              1.7296   YY=             -0.1348   ZZ=             -1.5948
   XY=              0.6048   XZ=              0.0000   YZ=              0.0000
 Octapole moment (field-independent basis, Debye-Ang**2):
  XXX=              0.5542  YYY=             -1.5948  ZZZ=              0.0000  XYY=             -0.4404
  XXY=             -1.5918  XXZ=              0.0000  XZZ=              0.2151  YZZ=             -0.3005
  YYZ=              0.0000  XYZ=              0.0000
 Hexadecapole moment (field-independent basis, Debye-Ang**3):
 XXXX=             -6.7635 YYYY=             -7.2290 ZZZZ=             -5.4871 XXXY=             -0.1887
 XXXZ=              0.0000 YYYX=             -0.0269 YYYZ=              0.0000 ZZZX=              0.0000
 ZZZY=              0.0000 XXYY=             -1.7576 XXZZ=             -2.3841 YYZZ=             -2.2464
 XXYZ=              0.0000 YYXZ=              0.0000 ZZXY=             -0.2242
 N-N= 8.222879789655D+00 E-N=-1.968113332638D+02  KE= 7.563738021736D+01
 Symmetry A'   KE= 7.102203103428D+01
 Symmetry A"   KE= 4.615349183083D+00
 No NMR shielding tensors so no spin-rotation constants.
 Leave Link  601 at Tue Mar 17 13:43:22 2020, MaxMem=    33554432 cpu:         0.1
 (Enter /usr/local/gaussian09d01/g09/l9999.exe)
 1\1\GINC-KARURA\SP\RHF\6-31G\H2O1\RTAKE\17-Mar-2020\0\\#p HF/6-31G\\ch
 k calc\\0,1\O,0,0.049680185,0.052560263,-3.221722295\H,0,0.049680185,0
 .811897263,-2.625679295\H,0,0.049680185,-0.891371255,-2.480781482\\Ver
 sion=ES64L-G09RevD.01\State=1-A'\HF=-75.9467061\RMSD=1.955e-09\Dipole=
 0.,-0.0154199,1.0454236\Quadrupole=-1.1856582,1.3818265,-0.1961683,0.,
 0.,-0.2450198\PG=CS [SG(H2O1)]\\@


 When cryptography is outlawed, bayl bhgynjf jvyy unir cevinpl.
 Job cpu time:       0 days  0 hours  0 minutes  0.4 seconds.
 File lengths (MBytes):  RWF=      5 Int=      0 D2E=      0 Chk=      1 Scr=      1
 Normal termination of Gaussian 09 at Tue Mar 17 13:43:22 2020.
