 Entering Gaussian System, Link 0=g09
 Input=./h2o_o1h3_08.gjf
 Output=./h2o_o1h3_08.log
 Initial command:
 /usr/local/gaussian09d01/g09/l1.exe "/scr/Gau-18111.inp" -scrdir="/scr/"
 Entering Link 1 = /usr/local/gaussian09d01/g09/l1.exe PID=     18112.
  
 Copyright (c) 1988,1990,1992,1993,1995,1998,2003,2009,2013,
            Gaussian, Inc.  All Rights Reserved.
  
 This is part of the Gaussian(R) 09 program.  It is based on
 the Gaussian(R) 03 system (copyright 2003, Gaussian, Inc.),
 the Gaussian(R) 98 system (copyright 1998, Gaussian, Inc.),
 the Gaussian(R) 94 system (copyright 1995, Gaussian, Inc.),
 the Gaussian 92(TM) system (copyright 1992, Gaussian, Inc.),
 the Gaussian 90(TM) system (copyright 1990, Gaussian, Inc.),
 the Gaussian 88(TM) system (copyright 1988, Gaussian, Inc.),
 the Gaussian 86(TM) system (copyright 1986, Carnegie Mellon
 University), and the Gaussian 82(TM) system (copyright 1983,
 Carnegie Mellon University). Gaussian is a federally registered
 trademark of Gaussian, Inc.
  
 This software contains proprietary and confidential information,
 including trade secrets, belonging to Gaussian, Inc.
  
 This software is provided under written license and may be
 used, copied, transmitted, or stored only in accord with that
 written license.
  
 The following legend is applicable only to US Government
 contracts under FAR:
  
                    RESTRICTED RIGHTS LEGEND
  
 Use, reproduction and disclosure by the US Government is
 subject to restrictions as set forth in subparagraphs (a)
 and (c) of the Commercial Computer Software - Restricted
 Rights clause in FAR 52.227-19.
  
 Gaussian, Inc.
 340 Quinnipiac St., Bldg. 40, Wallingford CT 06492
  
  
 ---------------------------------------------------------------
 Warning -- This program may not be used in any manner that
 competes with the business of Gaussian, Inc. or will provide
 assistance to any competitor of Gaussian, Inc.  The licensee
 of this program is prohibited from giving any competitor of
 Gaussian, Inc. access to this program.  By using this program,
 the user acknowledges that Gaussian, Inc. is engaged in the
 business of creating and licensing software in the field of
 computational chemistry and represents and warrants to the
 licensee that it is not a competitor of Gaussian, Inc. and that
 it will not use this program in any manner prohibited above.
 ---------------------------------------------------------------
  

 Cite this work as:
 Gaussian 09, Revision D.01,
 M. J. Frisch, G. W. Trucks, H. B. Schlegel, G. E. Scuseria, 
 M. A. Robb, J. R. Cheeseman, G. Scalmani, V. Barone, B. Mennucci, 
 G. A. Petersson, H. Nakatsuji, M. Caricato, X. Li, H. P. Hratchian, 
 A. F. Izmaylov, J. Bloino, G. Zheng, J. L. Sonnenberg, M. Hada, 
 M. Ehara, K. Toyota, R. Fukuda, J. Hasegawa, M. Ishida, T. Nakajima, 
 Y. Honda, O. Kitao, H. Nakai, T. Vreven, J. A. Montgomery, Jr., 
 J. E. Peralta, F. Ogliaro, M. Bearpark, J. J. Heyd, E. Brothers, 
 K. N. Kudin, V. N. Staroverov, T. Keith, R. Kobayashi, J. Normand, 
 K. Raghavachari, A. Rendell, J. C. Burant, S. S. Iyengar, J. Tomasi, 
 M. Cossi, N. Rega, J. M. Millam, M. Klene, J. E. Knox, J. B. Cross, 
 V. Bakken, C. Adamo, J. Jaramillo, R. Gomperts, R. E. Stratmann, 
 O. Yazyev, A. J. Austin, R. Cammi, C. Pomelli, J. W. Ochterski, 
 R. L. Martin, K. Morokuma, V. G. Zakrzewski, G. A. Voth, 
 P. Salvador, J. J. Dannenberg, S. Dapprich, A. D. Daniels, 
 O. Farkas, J. B. Foresman, J. V. Ortiz, J. Cioslowski, 
 and D. J. Fox, Gaussian, Inc., Wallingford CT, 2013.
 
 ******************************************
 Gaussian 09:  ES64L-G09RevD.01 24-Apr-2013
                17-Mar-2020 
 ******************************************
 -----------
 #p HF/6-31G
 -----------
 1/38=1/1;
 2/12=2,17=6,18=5,40=1/2;
 3/5=1,6=6,11=9,16=1,25=1,30=1/1,2,3;
 4//1;
 5/5=2,38=5/2;
 6/7=2,8=2,9=2,10=2,28=1/1;
 99/5=1,9=1/99;
 Leave Link    1 at Tue Mar 17 13:43:20 2020, MaxMem=           0 cpu:         0.0
 (Enter /usr/local/gaussian09d01/g09/l101.exe)
 --------
 chk calc
 --------
 Symbolic Z-matrix:
 Charge =  0 Multiplicity = 1
 O                     0.04968  -0.07723  -3.11984 
 H                     0.04968   0.68211  -2.5238 
 H                     0.04968  -0.76158  -2.58266 
 
 NAtoms=      3 NQM=        3 NQMF=       0 NMMI=      0 NMMIF=      0
                NMic=       0 NMicF=      0.
                    Isotopes and Nuclear Properties:
 (Nuclear quadrupole moments (NQMom) in fm**2, nuclear magnetic moments (NMagM)
  in nuclear magnetons)

  Atom         1           2           3
 IAtWgt=          16           1           1
 AtmWgt=  15.9949146   1.0078250   1.0078250
 NucSpn=           0           1           1
 AtZEff=   0.0000000   0.0000000   0.0000000
 NQMom=    0.0000000   0.0000000   0.0000000
 NMagM=    0.0000000   2.7928460   2.7928460
 AtZNuc=   8.0000000   1.0000000   1.0000000
 Leave Link  101 at Tue Mar 17 13:43:20 2020, MaxMem=    33554432 cpu:         0.0
 (Enter /usr/local/gaussian09d01/g09/l202.exe)
                          Input orientation:                          
 ---------------------------------------------------------------------
 Center     Atomic      Atomic             Coordinates (Angstroms)
 Number     Number       Type             X           Y           Z
 ---------------------------------------------------------------------
      1          8           0        0.049680   -0.077230   -3.119843
      2          1           0        0.049680    0.682107   -2.523800
      3          1           0        0.049680   -0.761581   -2.582661
 ---------------------------------------------------------------------
                    Distance matrix (angstroms):
                    1          2          3
     1  O    0.000000
     2  H    0.965329   0.000000
     3  H    0.870000   1.444887   0.000000
 Stoichiometry    H2O
 Framework group  CS[SG(H2O)]
 Deg. of freedom     3
 Full point group                 CS      NOp   2
 Largest Abelian subgroup         CS      NOp   2
 Largest concise Abelian subgroup C1      NOp   1
                         Standard orientation:                         
 ---------------------------------------------------------------------
 Center     Atomic      Atomic             Coordinates (Angstroms)
 Number     Number       Type             X           Y           Z
 ---------------------------------------------------------------------
      1          8           0        0.000000    0.113570    0.000000
      2          1           0        0.718325   -0.531308    0.000000
      3          1           0       -0.718325   -0.377254    0.000000
 ---------------------------------------------------------------------
 Rotational constants (GHZ):    897.4965696    474.0286026    310.1941206
 Leave Link  202 at Tue Mar 17 13:43:20 2020, MaxMem=    33554432 cpu:         0.0
 (Enter /usr/local/gaussian09d01/g09/l301.exe)
 Standard basis: 6-31G (6D, 7F)
 Ernie: Thresh=  0.10000D-02 Tol=  0.10000D-05 Strict=F.
 There are    11 symmetry adapted cartesian basis functions of A'  symmetry.
 There are     2 symmetry adapted cartesian basis functions of A"  symmetry.
 There are    11 symmetry adapted basis functions of A'  symmetry.
 There are     2 symmetry adapted basis functions of A"  symmetry.
    13 basis functions,    30 primitive gaussians,    13 cartesian basis functions
     5 alpha electrons        5 beta electrons
       nuclear repulsion energy         9.6177051156 Hartrees.
 IExCor=    0 DFT=F Ex=HF Corr=None ExCW=0 ScaHFX=  1.000000
 ScaDFX=  1.000000  1.000000  1.000000  1.000000 ScalE2=  1.000000  1.000000
 IRadAn=      0 IRanWt=     -1 IRanGd=            0 ICorTp=0 IEmpDi=  4
 NAtoms=    3 NActive=    3 NUniq=    3 SFac= 1.00D+00 NAtFMM=   60 NAOKFM=F Big=F
 Integral buffers will be    131072 words long.
 Raffenetti 1 integral format.
 Two-electron integral symmetry is turned on.
 Leave Link  301 at Tue Mar 17 13:43:20 2020, MaxMem=    33554432 cpu:         0.0
 (Enter /usr/local/gaussian09d01/g09/l302.exe)
 NPDir=0 NMtPBC=     1 NCelOv=     1 NCel=       1 NClECP=     1 NCelD=      1
         NCelK=      1 NCelE2=     1 NClLst=     1 CellRange=     0.0.
 One-electron integrals computed using PRISM.
 NBasis=    13 RedAO= T EigKep=  8.61D-02  NBF=    11     2
 NBsUse=    13 1.00D-06 EigRej= -1.00D+00 NBFU=    11     2
 Leave Link  302 at Tue Mar 17 13:43:20 2020, MaxMem=    33554432 cpu:         0.1
 (Enter /usr/local/gaussian09d01/g09/l303.exe)
 DipDrv:  MaxL=1.
 Leave Link  303 at Tue Mar 17 13:43:20 2020, MaxMem=    33554432 cpu:         0.0
 (Enter /usr/local/gaussian09d01/g09/l401.exe)
 ExpMin= 1.61D-01 ExpMax= 5.48D+03 ExpMxC= 8.25D+02 IAcc=1 IRadAn=         1 AccDes= 0.00D+00
 Harris functional with IExCor=  205 and IRadAn=       1 diagonalized for initial guess.
 HarFok:  IExCor=  205 AccDes= 0.00D+00 IRadAn=         1 IDoV= 1 UseB2=F ITyADJ=14
 ICtDFT=  3500011 ScaDFX=  1.000000  1.000000  1.000000  1.000000
 FoFCou: FMM=F IPFlag=           0 FMFlag=      100000 FMFlg1=           0
         NFxFlg=           0 DoJE=T BraDBF=F KetDBF=T FulRan=T
         wScrn=  0.000000 ICntrl=     500 IOpCl=  0 I1Cent=   200000004 NGrid=           0
         NMat0=    1 NMatS0=      1 NMatT0=    0 NMatD0=    1 NMtDS0=    0 NMtDT0=    0
 Petite list used in FoFCou.
 Harris En= -76.0779106263263    
 JPrj=0 DoOrth=F DoCkMO=F.
 Initial guess orbital symmetries:
       Occupied  (A') (A') (A') (A') (A")
       Virtual   (A') (A') (A') (A") (A') (A') (A') (A')
 The electronic state of the initial guess is 1-A'.
 Leave Link  401 at Tue Mar 17 13:43:20 2020, MaxMem=    33554432 cpu:         0.1
 (Enter /usr/local/gaussian09d01/g09/l502.exe)
 Closed shell SCF:
 Using DIIS extrapolation, IDIIS=  1040.
 Integral symmetry usage will be decided dynamically.
 Keep R1 ints in memory in symmetry-blocked form, NReq=829430.
 IVT=       20162 IEndB=       20162 NGot=    33554432 MDV=    33531252
 LenX=    33531252 LenY=    33530370
 Requested convergence on RMS density matrix=1.00D-08 within 128 cycles.
 Requested convergence on MAX density matrix=1.00D-06.
 Requested convergence on             energy=1.00D-06.
 No special actions if energy rises.
 FoFCou: FMM=F IPFlag=           0 FMFlag=           0 FMFlg1=           0
         NFxFlg=           0 DoJE=F BraDBF=F KetDBF=F FulRan=T
         wScrn=  0.000000 ICntrl=     600 IOpCl=  0 I1Cent=           0 NGrid=           0
         NMat0=    1 NMatS0=     91 NMatT0=    0 NMatD0=    1 NMtDS0=    0 NMtDT0=    0
 Petite list used in FoFCou.

 Cycle   1  Pass 1  IDiag  1:
 E= -75.8836927446509    
 DIIS: error= 9.24D-02 at cycle   1 NSaved=   1.
 NSaved= 1 IEnMin= 1 EnMin= -75.8836927446509     IErMin= 1 ErrMin= 9.24D-02
 ErrMax= 9.24D-02  0.00D+00 EMaxC= 1.00D-01 BMatC= 1.27D-01 BMatP= 1.27D-01
 IDIUse=3 WtCom= 7.63D-02 WtEn= 9.24D-01
 Coeff-Com:  0.100D+01
 Coeff-En:   0.100D+01
 Coeff:      0.100D+01
 Gap=     0.583 Goal=   None    Shift=    0.000
 GapD=    0.583 DampG=2.000 DampE=0.500 DampFc=1.0000 IDamp=-1.
 RMSDP=2.40D-02 MaxDP=1.28D-01              OVMax= 1.16D-01

 Cycle   2  Pass 1  IDiag  1:
 E= -75.9463498991491     Delta-E=       -0.062657154498 Rises=F Damp=F
 DIIS: error= 5.31D-02 at cycle   2 NSaved=   2.
 NSaved= 2 IEnMin= 2 EnMin= -75.9463498991491     IErMin= 2 ErrMin= 5.31D-02
 ErrMax= 5.31D-02  0.00D+00 EMaxC= 1.00D-01 BMatC= 4.12D-02 BMatP= 1.27D-01
 IDIUse=3 WtCom= 4.69D-01 WtEn= 5.31D-01
 Coeff-Com:  0.353D+00 0.647D+00
 Coeff-En:   0.814D-01 0.919D+00
 Coeff:      0.209D+00 0.791D+00
 Gap=     0.738 Goal=   None    Shift=    0.000
 RMSDP=1.15D-02 MaxDP=6.11D-02 DE=-6.27D-02 OVMax= 3.79D-02

 Cycle   3  Pass 1  IDiag  1:
 E= -75.9728014902936     Delta-E=       -0.026451591144 Rises=F Damp=F
 DIIS: error= 1.30D-02 at cycle   3 NSaved=   3.
 NSaved= 3 IEnMin= 3 EnMin= -75.9728014902936     IErMin= 3 ErrMin= 1.30D-02
 ErrMax= 1.30D-02  0.00D+00 EMaxC= 1.00D-01 BMatC= 2.35D-03 BMatP= 4.12D-02
 IDIUse=3 WtCom= 8.70D-01 WtEn= 1.30D-01
 Coeff-Com: -0.339D-01 0.154D+00 0.880D+00
 Coeff-En:   0.000D+00 0.000D+00 0.100D+01
 Coeff:     -0.295D-01 0.134D+00 0.895D+00
 Gap=     0.710 Goal=   None    Shift=    0.000
 RMSDP=2.34D-03 MaxDP=1.25D-02 DE=-2.65D-02 OVMax= 1.10D-02

 Cycle   4  Pass 1  IDiag  1:
 E= -75.9745341133497     Delta-E=       -0.001732623056 Rises=F Damp=F
 DIIS: error= 1.55D-03 at cycle   4 NSaved=   4.
 NSaved= 4 IEnMin= 4 EnMin= -75.9745341133497     IErMin= 4 ErrMin= 1.55D-03
 ErrMax= 1.55D-03  0.00D+00 EMaxC= 1.00D-01 BMatC= 2.18D-05 BMatP= 2.35D-03
 IDIUse=3 WtCom= 9.84D-01 WtEn= 1.55D-02
 Coeff-Com:  0.796D-02-0.763D-01-0.261D+00 0.133D+01
 Coeff-En:   0.000D+00 0.000D+00 0.000D+00 0.100D+01
 Coeff:      0.784D-02-0.751D-01-0.257D+00 0.132D+01
 Gap=     0.715 Goal=   None    Shift=    0.000
 RMSDP=3.12D-04 MaxDP=2.08D-03 DE=-1.73D-03 OVMax= 1.04D-03

 Cycle   5  Pass 1  IDiag  1:
 E= -75.9745545257276     Delta-E=       -0.000020412378 Rises=F Damp=F
 DIIS: error= 1.24D-04 at cycle   5 NSaved=   5.
 NSaved= 5 IEnMin= 5 EnMin= -75.9745545257276     IErMin= 5 ErrMin= 1.24D-04
 ErrMax= 1.24D-04  0.00D+00 EMaxC= 1.00D-01 BMatC= 1.19D-07 BMatP= 2.18D-05
 IDIUse=3 WtCom= 9.99D-01 WtEn= 1.24D-03
 Coeff-Com: -0.187D-02 0.226D-01 0.691D-01-0.481D+00 0.139D+01
 Coeff-En:   0.000D+00 0.000D+00 0.000D+00 0.000D+00 0.100D+01
 Coeff:     -0.186D-02 0.226D-01 0.690D-01-0.481D+00 0.139D+01
 Gap=     0.715 Goal=   None    Shift=    0.000
 RMSDP=6.25D-05 MaxDP=2.75D-04 DE=-2.04D-05 OVMax= 3.61D-04

 Cycle   6  Pass 1  IDiag  1:
 E= -75.9745548321463     Delta-E=       -0.000000306419 Rises=F Damp=F
 DIIS: error= 9.86D-06 at cycle   6 NSaved=   6.
 NSaved= 6 IEnMin= 6 EnMin= -75.9745548321463     IErMin= 6 ErrMin= 9.86D-06
 ErrMax= 9.86D-06  0.00D+00 EMaxC= 1.00D-01 BMatC= 1.93D-09 BMatP= 1.19D-07
 IDIUse=1 WtCom= 1.00D+00 WtEn= 0.00D+00
 Coeff-Com:  0.509D-03-0.677D-02-0.199D-01 0.155D+00-0.516D+00 0.139D+01
 Coeff:      0.509D-03-0.677D-02-0.199D-01 0.155D+00-0.516D+00 0.139D+01
 Gap=     0.715 Goal=   None    Shift=    0.000
 RMSDP=7.38D-06 MaxDP=3.33D-05 DE=-3.06D-07 OVMax= 4.19D-05

 Cycle   7  Pass 1  IDiag  1:
 E= -75.9745548369922     Delta-E=       -0.000000004846 Rises=F Damp=F
 DIIS: error= 2.58D-06 at cycle   7 NSaved=   7.
 NSaved= 7 IEnMin= 7 EnMin= -75.9745548369922     IErMin= 7 ErrMin= 2.58D-06
 ErrMax= 2.58D-06  0.00D+00 EMaxC= 1.00D-01 BMatC= 8.97D-11 BMatP= 1.93D-09
 IDIUse=1 WtCom= 1.00D+00 WtEn= 0.00D+00
 Coeff-Com: -0.431D-04 0.819D-03 0.213D-02-0.231D-01 0.938D-01-0.425D+00
 Coeff-Com:  0.135D+01
 Coeff:     -0.431D-04 0.819D-03 0.213D-02-0.231D-01 0.938D-01-0.425D+00
 Coeff:      0.135D+01
 Gap=     0.715 Goal=   None    Shift=    0.000
 RMSDP=1.37D-06 MaxDP=6.54D-06 DE=-4.85D-09 OVMax= 8.31D-06

 Cycle   8  Pass 1  IDiag  1:
 E= -75.9745548371976     Delta-E=       -0.000000000205 Rises=F Damp=F
 DIIS: error= 2.95D-07 at cycle   8 NSaved=   8.
 NSaved= 8 IEnMin= 8 EnMin= -75.9745548371976     IErMin= 8 ErrMin= 2.95D-07
 ErrMax= 2.95D-07  0.00D+00 EMaxC= 1.00D-01 BMatC= 1.27D-12 BMatP= 8.97D-11
 IDIUse=1 WtCom= 1.00D+00 WtEn= 0.00D+00
 Coeff-Com: -0.803D-05 0.287D-04 0.173D-03 0.585D-03-0.643D-02 0.585D-01
 Coeff-Com: -0.303D+00 0.125D+01
 Coeff:     -0.803D-05 0.287D-04 0.173D-03 0.585D-03-0.643D-02 0.585D-01
 Coeff:     -0.303D+00 0.125D+01
 Gap=     0.715 Goal=   None    Shift=    0.000
 RMSDP=1.72D-07 MaxDP=6.58D-07 DE=-2.05D-10 OVMax= 9.87D-07

 Cycle   9  Pass 1  IDiag  1:
 E= -75.9745548372006     Delta-E=       -0.000000000003 Rises=F Damp=F
 DIIS: error= 4.64D-08 at cycle   9 NSaved=   9.
 NSaved= 9 IEnMin= 9 EnMin= -75.9745548372006     IErMin= 9 ErrMin= 4.64D-08
 ErrMax= 4.64D-08  0.00D+00 EMaxC= 1.00D-01 BMatC= 2.51D-14 BMatP= 1.27D-12
 IDIUse=1 WtCom= 1.00D+00 WtEn= 0.00D+00
 Coeff-Com:  0.157D-05-0.848D-06-0.245D-04-0.300D-03 0.204D-02-0.152D-01
 Coeff-Com:  0.759D-01-0.390D+00 0.133D+01
 Coeff:      0.157D-05-0.848D-06-0.245D-04-0.300D-03 0.204D-02-0.152D-01
 Coeff:      0.759D-01-0.390D+00 0.133D+01
 Gap=     0.715 Goal=   None    Shift=    0.000
 RMSDP=3.52D-08 MaxDP=1.31D-07 DE=-2.97D-12 OVMax= 2.14D-07

 Cycle  10  Pass 1  IDiag  1:
 E= -75.9745548372007     Delta-E=        0.000000000000 Rises=F Damp=F
 DIIS: error= 4.65D-09 at cycle  10 NSaved=  10.
 NSaved=10 IEnMin=10 EnMin= -75.9745548372007     IErMin=10 ErrMin= 4.65D-09
 ErrMax= 4.65D-09  0.00D+00 EMaxC= 1.00D-01 BMatC= 3.21D-16 BMatP= 2.51D-14
 IDIUse=1 WtCom= 1.00D+00 WtEn= 0.00D+00
 Coeff-Com: -0.281D-06 0.427D-06 0.485D-05 0.417D-04-0.301D-03 0.230D-02
 Coeff-Com: -0.124D-01 0.698D-01-0.309D+00 0.125D+01
 Coeff:     -0.281D-06 0.427D-06 0.485D-05 0.417D-04-0.301D-03 0.230D-02
 Coeff:     -0.124D-01 0.698D-01-0.309D+00 0.125D+01
 Gap=     0.715 Goal=   None    Shift=    0.000
 RMSDP=4.06D-09 MaxDP=1.78D-08 DE=-1.14D-13 OVMax= 2.37D-08

 SCF Done:  E(RHF) =  -75.9745548372     A.U. after   10 cycles
            NFock= 10  Conv=0.41D-08     -V/T= 1.9973
 KE= 7.618298021707D+01 PE=-1.998892827058D+02 EE= 3.811404253594D+01
 Leave Link  502 at Tue Mar 17 13:43:20 2020, MaxMem=    33554432 cpu:         0.1
 (Enter /usr/local/gaussian09d01/g09/l601.exe)
 Copying SCF densities to generalized density rwf, IOpCl= 0 IROHF=0.

 **********************************************************************

            Population analysis using the SCF density.

 **********************************************************************

 Orbital symmetries:
       Occupied  (A') (A') (A') (A') (A")
       Virtual   (A') (A') (A') (A") (A') (A') (A') (A')
 The electronic state is 1-A'.
 Alpha  occ. eigenvalues --  -20.55289  -1.38248  -0.73188  -0.56750  -0.50437
 Alpha virt. eigenvalues --    0.21041   0.31050   1.05736   1.16397   1.20533
 Alpha virt. eigenvalues --    1.26113   1.41570   1.69961
          Condensed to atoms (all electrons):
               1          2          3
     1  O    8.228537   0.270269   0.273172
     2  H    0.270269   0.373697  -0.036430
     3  H    0.273172  -0.036430   0.383745
 Mulliken charges:
               1
     1  O   -0.771978
     2  H    0.392464
     3  H    0.379514
 Sum of Mulliken charges =   0.00000
 Mulliken charges with hydrogens summed into heavy atoms:
               1
     1  O    0.000000
 Electronic spatial extent (au):  <R**2>=             18.5963
 Charge=              0.0000 electrons
 Dipole moment (field-independent basis, Debye):
    X=             -0.1260    Y=             -2.6226    Z=              0.0000  Tot=              2.6256
 Quadrupole moment (field-independent basis, Debye-Ang):
   XX=             -4.3278   YY=             -6.0788   ZZ=             -7.1141
   XY=             -0.2381   XZ=              0.0000   YZ=              0.0000
 Traceless Quadrupole moment (field-independent basis, Debye-Ang):
   XX=              1.5124   YY=             -0.2386   ZZ=             -1.2739
   XY=             -0.2381   XZ=              0.0000   YZ=              0.0000
 Octapole moment (field-independent basis, Debye-Ang**2):
  XXX=             -0.1650  YYY=             -1.6666  ZZZ=              0.0000  XYY=              0.1187
  XXY=             -1.1808  XXZ=              0.0000  XZZ=             -0.0796  YZZ=             -0.4707
  YYZ=              0.0000  XYZ=              0.0000
 Hexadecapole moment (field-independent basis, Debye-Ang**3):
 XXXX=             -5.3578 YYYY=             -5.9752 ZZZZ=             -5.0816 XXXY=              0.0346
 XXXZ=              0.0000 YYYX=              0.0148 YYYZ=              0.0000 ZZZX=              0.0000
 ZZZY=              0.0000 XXYY=             -1.6144 XXZZ=             -1.9234 YYZZ=             -1.8911
 XXYZ=              0.0000 YYXZ=              0.0000 ZZXY=              0.0588
 N-N= 9.617705115618D+00 E-N=-1.998892827219D+02  KE= 7.618298021707D+01
 Symmetry A'   KE= 7.161570671399D+01
 Symmetry A"   KE= 4.567273503082D+00
 No NMR shielding tensors so no spin-rotation constants.
 Leave Link  601 at Tue Mar 17 13:43:21 2020, MaxMem=    33554432 cpu:         0.1
 (Enter /usr/local/gaussian09d01/g09/l9999.exe)
 1\1\GINC-KARURA\SP\RHF\6-31G\H2O1\RTAKE\17-Mar-2020\0\\#p HF/6-31G\\ch
 k calc\\0,1\O,0,0.049680185,-0.077230321,-3.119842934\H,0,0.049680185,
 0.682106679,-2.523799934\H,0,0.049680185,-0.761580672,-2.582660844\\Ve
 rsion=ES64L-G09RevD.01\State=1-A'\HF=-75.9745548\RMSD=4.055e-09\Dipole
 =0.,0.018653,1.0328177\Quadrupole=-0.9470948,1.1421027,-0.195008,0.,0.
 ,0.0897053\PG=CS [SG(H2O1)]\\@


 FROM WHENCE IT HAPPENS, THAT THEY WHICH TRUST TO BOOKS, DO AS THEY THAT CAST UP MANY LITTLE SUMMS INTO GREATER,
 WITHOUT CONSIDERING WETHER THOSE LITTLE SUMMES WERE RIGHTLY CAST UP OR NOT...
 AND AT LAST FINDING THE ERROUR VISIBLE, AND NOT MISTRUSTING THEIR FIRST GROUNDS,
 KNOW NOT WHICH WAY TO CLEERE THEMSELVES...
 BUT SPEND TIME IN FLUTTERING OVER THEIR BOOKES....
 AS BIRDS THAT ENTERING BY THE CHIMNEY, AND FINDING THEMSELVES INCLOSED IN A CHAMBER,
 FLUTTER AT THE FALSE LIGHT OF A GLASSE WINDOW,
 FOR WANT OF WIT TO CONSIDER WHICH WAY THEY CAME IN....
           LEVIATHAN
 Job cpu time:       0 days  0 hours  0 minutes  0.4 seconds.
 File lengths (MBytes):  RWF=      5 Int=      0 D2E=      0 Chk=      1 Scr=      1
 Normal termination of Gaussian 09 at Tue Mar 17 13:43:21 2020.
