 Entering Gaussian System, Link 0=g09
 Input=./h2o_o1h3_13.gjf
 Output=./h2o_o1h3_13.log
 Initial command:
 /usr/local/gaussian09d01/g09/l1.exe "/scr/Gau-18124.inp" -scrdir="/scr/"
 Entering Link 1 = /usr/local/gaussian09d01/g09/l1.exe PID=     18125.
  
 Copyright (c) 1988,1990,1992,1993,1995,1998,2003,2009,2013,
            Gaussian, Inc.  All Rights Reserved.
  
 This is part of the Gaussian(R) 09 program.  It is based on
 the Gaussian(R) 03 system (copyright 2003, Gaussian, Inc.),
 the Gaussian(R) 98 system (copyright 1998, Gaussian, Inc.),
 the Gaussian(R) 94 system (copyright 1995, Gaussian, Inc.),
 the Gaussian 92(TM) system (copyright 1992, Gaussian, Inc.),
 the Gaussian 90(TM) system (copyright 1990, Gaussian, Inc.),
 the Gaussian 88(TM) system (copyright 1988, Gaussian, Inc.),
 the Gaussian 86(TM) system (copyright 1986, Carnegie Mellon
 University), and the Gaussian 82(TM) system (copyright 1983,
 Carnegie Mellon University). Gaussian is a federally registered
 trademark of Gaussian, Inc.
  
 This software contains proprietary and confidential information,
 including trade secrets, belonging to Gaussian, Inc.
  
 This software is provided under written license and may be
 used, copied, transmitted, or stored only in accord with that
 written license.
  
 The following legend is applicable only to US Government
 contracts under FAR:
  
                    RESTRICTED RIGHTS LEGEND
  
 Use, reproduction and disclosure by the US Government is
 subject to restrictions as set forth in subparagraphs (a)
 and (c) of the Commercial Computer Software - Restricted
 Rights clause in FAR 52.227-19.
  
 Gaussian, Inc.
 340 Quinnipiac St., Bldg. 40, Wallingford CT 06492
  
  
 ---------------------------------------------------------------
 Warning -- This program may not be used in any manner that
 competes with the business of Gaussian, Inc. or will provide
 assistance to any competitor of Gaussian, Inc.  The licensee
 of this program is prohibited from giving any competitor of
 Gaussian, Inc. access to this program.  By using this program,
 the user acknowledges that Gaussian, Inc. is engaged in the
 business of creating and licensing software in the field of
 computational chemistry and represents and warrants to the
 licensee that it is not a competitor of Gaussian, Inc. and that
 it will not use this program in any manner prohibited above.
 ---------------------------------------------------------------
  

 Cite this work as:
 Gaussian 09, Revision D.01,
 M. J. Frisch, G. W. Trucks, H. B. Schlegel, G. E. Scuseria, 
 M. A. Robb, J. R. Cheeseman, G. Scalmani, V. Barone, B. Mennucci, 
 G. A. Petersson, H. Nakatsuji, M. Caricato, X. Li, H. P. Hratchian, 
 A. F. Izmaylov, J. Bloino, G. Zheng, J. L. Sonnenberg, M. Hada, 
 M. Ehara, K. Toyota, R. Fukuda, J. Hasegawa, M. Ishida, T. Nakajima, 
 Y. Honda, O. Kitao, H. Nakai, T. Vreven, J. A. Montgomery, Jr., 
 J. E. Peralta, F. Ogliaro, M. Bearpark, J. J. Heyd, E. Brothers, 
 K. N. Kudin, V. N. Staroverov, T. Keith, R. Kobayashi, J. Normand, 
 K. Raghavachari, A. Rendell, J. C. Burant, S. S. Iyengar, J. Tomasi, 
 M. Cossi, N. Rega, J. M. Millam, M. Klene, J. E. Knox, J. B. Cross, 
 V. Bakken, C. Adamo, J. Jaramillo, R. Gomperts, R. E. Stratmann, 
 O. Yazyev, A. J. Austin, R. Cammi, C. Pomelli, J. W. Ochterski, 
 R. L. Martin, K. Morokuma, V. G. Zakrzewski, G. A. Voth, 
 P. Salvador, J. J. Dannenberg, S. Dapprich, A. D. Daniels, 
 O. Farkas, J. B. Foresman, J. V. Ortiz, J. Cioslowski, 
 and D. J. Fox, Gaussian, Inc., Wallingford CT, 2013.
 
 ******************************************
 Gaussian 09:  ES64L-G09RevD.01 24-Apr-2013
                17-Mar-2020 
 ******************************************
 -----------
 #p HF/6-31G
 -----------
 1/38=1/1;
 2/12=2,17=6,18=5,40=1/2;
 3/5=1,6=6,11=9,16=1,25=1,30=1/1,2,3;
 4//1;
 5/5=2,38=5/2;
 6/7=2,8=2,9=2,10=2,28=1/1;
 99/5=1,9=1/99;
 Leave Link    1 at Tue Mar 17 13:43:22 2020, MaxMem=           0 cpu:         0.0
 (Enter /usr/local/gaussian09d01/g09/l101.exe)
 --------
 chk calc
 --------
 Symbolic Z-matrix:
 Charge =  0 Multiplicity = 1
 O                     0.04968   0.09189  -3.25259 
 H                     0.04968   0.85123  -2.65655 
 H                     0.04968  -0.9307   -2.44991 
 
 NAtoms=      3 NQM=        3 NQMF=       0 NMMI=      0 NMMIF=      0
                NMic=       0 NMicF=      0.
                    Isotopes and Nuclear Properties:
 (Nuclear quadrupole moments (NQMom) in fm**2, nuclear magnetic moments (NMagM)
  in nuclear magnetons)

  Atom         1           2           3
 IAtWgt=          16           1           1
 AtmWgt=  15.9949146   1.0078250   1.0078250
 NucSpn=           0           1           1
 AtZEff=   0.0000000   0.0000000   0.0000000
 NQMom=    0.0000000   0.0000000   0.0000000
 NMagM=    0.0000000   2.7928460   2.7928460
 AtZNuc=   8.0000000   1.0000000   1.0000000
 Leave Link  101 at Tue Mar 17 13:43:22 2020, MaxMem=    33554432 cpu:         0.0
 (Enter /usr/local/gaussian09d01/g09/l202.exe)
                          Input orientation:                          
 ---------------------------------------------------------------------
 Center     Atomic      Atomic             Coordinates (Angstroms)
 Number     Number       Type             X           Y           Z
 ---------------------------------------------------------------------
      1          8           0        0.049680    0.091891   -3.252595
      2          1           0        0.049680    0.851228   -2.656552
      3          1           0        0.049680   -0.930702   -2.449909
 ---------------------------------------------------------------------
                    Distance matrix (angstroms):
                    1          2          3
     1  O    0.000000
     2  H    0.965329   0.000000
     3  H    1.300000   1.793871   0.000000
 Stoichiometry    H2O
 Framework group  CS[SG(H2O)]
 Deg. of freedom     3
 Full point group                 CS      NOp   2
 Largest Abelian subgroup         CS      NOp   2
 Largest concise Abelian subgroup C1      NOp   1
                         Standard orientation:                         
 ---------------------------------------------------------------------
 Center     Atomic      Atomic             Coordinates (Angstroms)
 Number     Number       Type             X           Y           Z
 ---------------------------------------------------------------------
      1          8           0        0.000000    0.142329    0.000000
      2          1           0        0.856481   -0.302981    0.000000
      3          1           0       -0.856481   -0.835649    0.000000
 ---------------------------------------------------------------------
 Rotational constants (GHZ):    667.8813355    285.2921616    199.9020225
 Leave Link  202 at Tue Mar 17 13:43:22 2020, MaxMem=    33554432 cpu:         0.0
 (Enter /usr/local/gaussian09d01/g09/l301.exe)
 Standard basis: 6-31G (6D, 7F)
 Ernie: Thresh=  0.10000D-02 Tol=  0.10000D-05 Strict=F.
 There are    11 symmetry adapted cartesian basis functions of A'  symmetry.
 There are     2 symmetry adapted cartesian basis functions of A"  symmetry.
 There are    11 symmetry adapted basis functions of A'  symmetry.
 There are     2 symmetry adapted basis functions of A"  symmetry.
    13 basis functions,    30 primitive gaussians,    13 cartesian basis functions
     5 alpha electrons        5 beta electrons
       nuclear repulsion energy         7.9369333786 Hartrees.
 IExCor=    0 DFT=F Ex=HF Corr=None ExCW=0 ScaHFX=  1.000000
 ScaDFX=  1.000000  1.000000  1.000000  1.000000 ScalE2=  1.000000  1.000000
 IRadAn=      0 IRanWt=     -1 IRanGd=            0 ICorTp=0 IEmpDi=  4
 NAtoms=    3 NActive=    3 NUniq=    3 SFac= 1.00D+00 NAtFMM=   60 NAOKFM=F Big=F
 Integral buffers will be    131072 words long.
 Raffenetti 1 integral format.
 Two-electron integral symmetry is turned on.
 Leave Link  301 at Tue Mar 17 13:43:22 2020, MaxMem=    33554432 cpu:         0.0
 (Enter /usr/local/gaussian09d01/g09/l302.exe)
 NPDir=0 NMtPBC=     1 NCelOv=     1 NCel=       1 NClECP=     1 NCelD=      1
         NCelK=      1 NCelE2=     1 NClLst=     1 CellRange=     0.0.
 One-electron integrals computed using PRISM.
 NBasis=    13 RedAO= T EigKep=  1.15D-01  NBF=    11     2
 NBsUse=    13 1.00D-06 EigRej= -1.00D+00 NBFU=    11     2
 Leave Link  302 at Tue Mar 17 13:43:22 2020, MaxMem=    33554432 cpu:         0.1
 (Enter /usr/local/gaussian09d01/g09/l303.exe)
 DipDrv:  MaxL=1.
 Leave Link  303 at Tue Mar 17 13:43:22 2020, MaxMem=    33554432 cpu:         0.0
 (Enter /usr/local/gaussian09d01/g09/l401.exe)
 ExpMin= 1.61D-01 ExpMax= 5.48D+03 ExpMxC= 8.25D+02 IAcc=1 IRadAn=         1 AccDes= 0.00D+00
 Harris functional with IExCor=  205 and IRadAn=       1 diagonalized for initial guess.
 HarFok:  IExCor=  205 AccDes= 0.00D+00 IRadAn=         1 IDoV= 1 UseB2=F ITyADJ=14
 ICtDFT=  3500011 ScaDFX=  1.000000  1.000000  1.000000  1.000000
 FoFCou: FMM=F IPFlag=           0 FMFlag=      100000 FMFlg1=           0
         NFxFlg=           0 DoJE=T BraDBF=F KetDBF=T FulRan=T
         wScrn=  0.000000 ICntrl=     500 IOpCl=  0 I1Cent=   200000004 NGrid=           0
         NMat0=    1 NMatS0=      1 NMatT0=    0 NMatD0=    1 NMtDS0=    0 NMtDT0=    0
 Petite list used in FoFCou.
 Harris En= -76.0396932530395    
 JPrj=0 DoOrth=F DoCkMO=F.
 Initial guess orbital symmetries:
       Occupied  (A') (A') (A') (A') (A")
       Virtual   (A') (A') (A') (A") (A') (A') (A') (A')
 The electronic state of the initial guess is 1-A'.
 Leave Link  401 at Tue Mar 17 13:43:23 2020, MaxMem=    33554432 cpu:         0.1
 (Enter /usr/local/gaussian09d01/g09/l502.exe)
 Closed shell SCF:
 Using DIIS extrapolation, IDIIS=  1040.
 Integral symmetry usage will be decided dynamically.
 Keep R1 ints in memory in symmetry-blocked form, NReq=829401.
 IVT=       20162 IEndB=       20162 NGot=    33554432 MDV=    33531252
 LenX=    33531252 LenY=    33530370
 Requested convergence on RMS density matrix=1.00D-08 within 128 cycles.
 Requested convergence on MAX density matrix=1.00D-06.
 Requested convergence on             energy=1.00D-06.
 No special actions if energy rises.
 FoFCou: FMM=F IPFlag=           0 FMFlag=           0 FMFlg1=           0
         NFxFlg=           0 DoJE=F BraDBF=F KetDBF=F FulRan=T
         wScrn=  0.000000 ICntrl=     600 IOpCl=  0 I1Cent=           0 NGrid=           0
         NMat0=    1 NMatS0=     91 NMatT0=    0 NMatD0=    1 NMtDS0=    0 NMtDT0=    0
 Petite list used in FoFCou.

 Cycle   1  Pass 1  IDiag  1:
 E= -75.8284788321240    
 DIIS: error= 7.38D-02 at cycle   1 NSaved=   1.
 NSaved= 1 IEnMin= 1 EnMin= -75.8284788321240     IErMin= 1 ErrMin= 7.38D-02
 ErrMax= 7.38D-02  0.00D+00 EMaxC= 1.00D-01 BMatC= 1.15D-01 BMatP= 1.15D-01
 IDIUse=3 WtCom= 2.62D-01 WtEn= 7.38D-01
 Coeff-Com:  0.100D+01
 Coeff-En:   0.100D+01
 Coeff:      0.100D+01
 Gap=     0.461 Goal=   None    Shift=    0.000
 GapD=    0.461 DampG=2.000 DampE=0.500 DampFc=1.0000 IDamp=-1.
 RMSDP=2.61D-02 MaxDP=1.40D-01              OVMax= 1.59D-01

 Cycle   2  Pass 1  IDiag  1:
 E= -75.8792776534822     Delta-E=       -0.050798821358 Rises=F Damp=F
 DIIS: error= 6.69D-02 at cycle   2 NSaved=   2.
 NSaved= 2 IEnMin= 2 EnMin= -75.8792776534822     IErMin= 2 ErrMin= 6.69D-02
 ErrMax= 6.69D-02  0.00D+00 EMaxC= 1.00D-01 BMatC= 5.95D-02 BMatP= 1.15D-01
 IDIUse=3 WtCom= 3.31D-01 WtEn= 6.69D-01
 Coeff-Com:  0.411D+00 0.589D+00
 Coeff-En:   0.242D+00 0.758D+00
 Coeff:      0.298D+00 0.702D+00
 Gap=     0.632 Goal=   None    Shift=    0.000
 RMSDP=1.39D-02 MaxDP=7.23D-02 DE=-5.08D-02 OVMax= 5.77D-02

 Cycle   3  Pass 1  IDiag  1:
 E= -75.9204038935768     Delta-E=       -0.041126240095 Rises=F Damp=F
 DIIS: error= 1.10D-02 at cycle   3 NSaved=   3.
 NSaved= 3 IEnMin= 3 EnMin= -75.9204038935768     IErMin= 3 ErrMin= 1.10D-02
 ErrMax= 1.10D-02  0.00D+00 EMaxC= 1.00D-01 BMatC= 2.14D-03 BMatP= 5.95D-02
 IDIUse=3 WtCom= 8.90D-01 WtEn= 1.10D-01
 Coeff-Com: -0.497D-01 0.109D+00 0.941D+00
 Coeff-En:   0.000D+00 0.000D+00 0.100D+01
 Coeff:     -0.442D-01 0.971D-01 0.947D+00
 Gap=     0.620 Goal=   None    Shift=    0.000
 RMSDP=2.50D-03 MaxDP=1.48D-02 DE=-4.11D-02 OVMax= 1.96D-02

 Cycle   4  Pass 1  IDiag  1:
 E= -75.9224044729570     Delta-E=       -0.002000579380 Rises=F Damp=F
 DIIS: error= 2.68D-03 at cycle   4 NSaved=   4.
 NSaved= 4 IEnMin= 4 EnMin= -75.9224044729570     IErMin= 4 ErrMin= 2.68D-03
 ErrMax= 2.68D-03  0.00D+00 EMaxC= 1.00D-01 BMatC= 5.79D-05 BMatP= 2.14D-03
 IDIUse=3 WtCom= 9.73D-01 WtEn= 2.68D-02
 Coeff-Com:  0.129D-01-0.854D-01-0.357D+00 0.143D+01
 Coeff-En:   0.000D+00 0.000D+00 0.000D+00 0.100D+01
 Coeff:      0.126D-01-0.831D-01-0.348D+00 0.142D+01
 Gap=     0.628 Goal=   None    Shift=    0.000
 RMSDP=6.63D-04 MaxDP=4.21D-03 DE=-2.00D-03 OVMax= 3.36D-03

 Cycle   5  Pass 1  IDiag  1:
 E= -75.9224780586224     Delta-E=       -0.000073585665 Rises=F Damp=F
 DIIS: error= 2.27D-04 at cycle   5 NSaved=   5.
 NSaved= 5 IEnMin= 5 EnMin= -75.9224780586224     IErMin= 5 ErrMin= 2.27D-04
 ErrMax= 2.27D-04  0.00D+00 EMaxC= 1.00D-01 BMatC= 5.12D-07 BMatP= 5.79D-05
 IDIUse=3 WtCom= 9.98D-01 WtEn= 2.27D-03
 Coeff-Com: -0.304D-02 0.264D-01 0.100D+00-0.529D+00 0.141D+01
 Coeff-En:   0.000D+00 0.000D+00 0.000D+00 0.000D+00 0.100D+01
 Coeff:     -0.304D-02 0.263D-01 0.100D+00-0.528D+00 0.140D+01
 Gap=     0.629 Goal=   None    Shift=    0.000
 RMSDP=1.20D-04 MaxDP=5.36D-04 DE=-7.36D-05 OVMax= 8.82D-04

 Cycle   6  Pass 1  IDiag  1:
 E= -75.9224794877511     Delta-E=       -0.000001429129 Rises=F Damp=F
 DIIS: error= 2.77D-05 at cycle   6 NSaved=   6.
 NSaved= 6 IEnMin= 6 EnMin= -75.9224794877511     IErMin= 6 ErrMin= 2.77D-05
 ErrMax= 2.77D-05  0.00D+00 EMaxC= 1.00D-01 BMatC= 1.68D-08 BMatP= 5.12D-07
 IDIUse=1 WtCom= 1.00D+00 WtEn= 0.00D+00
 Coeff-Com:  0.114D-02-0.107D-01-0.400D-01 0.232D+00-0.699D+00 0.152D+01
 Coeff:      0.114D-02-0.107D-01-0.400D-01 0.232D+00-0.699D+00 0.152D+01
 Gap=     0.629 Goal=   None    Shift=    0.000
 RMSDP=2.13D-05 MaxDP=9.91D-05 DE=-1.43D-06 OVMax= 1.40D-04

 Cycle   7  Pass 1  IDiag  1:
 E= -75.9224795435724     Delta-E=       -0.000000055821 Rises=F Damp=F
 DIIS: error= 8.67D-06 at cycle   7 NSaved=   7.
 NSaved= 7 IEnMin= 7 EnMin= -75.9224795435724     IErMin= 7 ErrMin= 8.67D-06
 ErrMax= 8.67D-06  0.00D+00 EMaxC= 1.00D-01 BMatC= 1.48D-09 BMatP= 1.68D-08
 IDIUse=1 WtCom= 1.00D+00 WtEn= 0.00D+00
 Coeff-Com: -0.125D-03 0.152D-02 0.553D-02-0.415D-01 0.145D+00-0.563D+00
 Coeff-Com:  0.145D+01
 Coeff:     -0.125D-03 0.152D-02 0.553D-02-0.415D-01 0.145D+00-0.563D+00
 Coeff:      0.145D+01
 Gap=     0.629 Goal=   None    Shift=    0.000
 RMSDP=6.46D-06 MaxDP=2.92D-05 DE=-5.58D-08 OVMax= 4.73D-05

 Cycle   8  Pass 1  IDiag  1:
 E= -75.9224795481483     Delta-E=       -0.000000004576 Rises=F Damp=F
 DIIS: error= 1.58D-06 at cycle   8 NSaved=   8.
 NSaved= 8 IEnMin= 8 EnMin= -75.9224795481483     IErMin= 8 ErrMin= 1.58D-06
 ErrMax= 1.58D-06  0.00D+00 EMaxC= 1.00D-01 BMatC= 3.07D-11 BMatP= 1.48D-09
 IDIUse=1 WtCom= 1.00D+00 WtEn= 0.00D+00
 Coeff-Com: -0.218D-04 0.628D-04 0.319D-03 0.204D-02-0.133D-01 0.115D+00
 Coeff-Com: -0.479D+00 0.137D+01
 Coeff:     -0.218D-04 0.628D-04 0.319D-03 0.204D-02-0.133D-01 0.115D+00
 Coeff:     -0.479D+00 0.137D+01
 Gap=     0.629 Goal=   None    Shift=    0.000
 RMSDP=1.17D-06 MaxDP=3.44D-06 DE=-4.58D-09 OVMax= 7.93D-06

 Cycle   9  Pass 1  IDiag  1:
 E= -75.9224795482691     Delta-E=       -0.000000000121 Rises=F Damp=F
 DIIS: error= 3.11D-07 at cycle   9 NSaved=   9.
 NSaved= 9 IEnMin= 9 EnMin= -75.9224795482691     IErMin= 9 ErrMin= 3.11D-07
 ErrMax= 3.11D-07  0.00D+00 EMaxC= 1.00D-01 BMatC= 1.12D-12 BMatP= 3.07D-11
 IDIUse=1 WtCom= 1.00D+00 WtEn= 0.00D+00
 Coeff-Com:  0.852D-05-0.309D-04-0.144D-03-0.486D-03 0.372D-02-0.355D-01
 Coeff-Com:  0.155D+00-0.581D+00 0.146D+01
 Coeff:      0.852D-05-0.309D-04-0.144D-03-0.486D-03 0.372D-02-0.355D-01
 Coeff:      0.155D+00-0.581D+00 0.146D+01
 Gap=     0.629 Goal=   None    Shift=    0.000
 RMSDP=2.41D-07 MaxDP=8.49D-07 DE=-1.21D-10 OVMax= 1.41D-06

 Cycle  10  Pass 1  IDiag  1:
 E= -75.9224795482730     Delta-E=       -0.000000000004 Rises=F Damp=F
 DIIS: error= 3.82D-08 at cycle  10 NSaved=  10.
 NSaved=10 IEnMin=10 EnMin= -75.9224795482730     IErMin=10 ErrMin= 3.82D-08
 ErrMax= 3.82D-08  0.00D+00 EMaxC= 1.00D-01 BMatC= 1.68D-14 BMatP= 1.12D-12
 IDIUse=1 WtCom= 1.00D+00 WtEn= 0.00D+00
 Coeff-Com: -0.135D-05 0.227D-05 0.139D-04 0.195D-03-0.104D-02 0.798D-02
 Coeff-Com: -0.336D-01 0.138D+00-0.425D+00 0.131D+01
 Coeff:     -0.135D-05 0.227D-05 0.139D-04 0.195D-03-0.104D-02 0.798D-02
 Coeff:     -0.336D-01 0.138D+00-0.425D+00 0.131D+01
 Gap=     0.629 Goal=   None    Shift=    0.000
 RMSDP=1.70D-08 MaxDP=8.46D-08 DE=-3.84D-12 OVMax= 9.68D-08

 Cycle  11  Pass 1  IDiag  1:
 E= -75.9224795482730     Delta-E=        0.000000000000 Rises=F Damp=F
 DIIS: error= 4.65D-09 at cycle  11 NSaved=  11.
 NSaved=11 IEnMin=10 EnMin= -75.9224795482730     IErMin=11 ErrMin= 4.65D-09
 ErrMax= 4.65D-09  0.00D+00 EMaxC= 1.00D-01 BMatC= 3.51D-16 BMatP= 1.68D-14
 IDIUse=1 WtCom= 1.00D+00 WtEn= 0.00D+00
 Coeff-Com:  0.229D-06-0.526D-06-0.291D-05-0.252D-04 0.144D-03-0.118D-02
 Coeff-Com:  0.529D-02-0.235D-01 0.816D-01-0.322D+00 0.126D+01
 Coeff:      0.229D-06-0.526D-06-0.291D-05-0.252D-04 0.144D-03-0.118D-02
 Coeff:      0.529D-02-0.235D-01 0.816D-01-0.322D+00 0.126D+01
 Gap=     0.629 Goal=   None    Shift=    0.000
 RMSDP=2.75D-09 MaxDP=1.10D-08 DE= 0.00D+00 OVMax= 1.65D-08

 SCF Done:  E(RHF) =  -75.9224795483     A.U. after   11 cycles
            NFock= 11  Conv=0.28D-08     -V/T= 2.0049
 KE= 7.555527199646D+01 PE=-1.961677118034D+02 EE= 3.675302688004D+01
 Leave Link  502 at Tue Mar 17 13:43:23 2020, MaxMem=    33554432 cpu:         0.1
 (Enter /usr/local/gaussian09d01/g09/l601.exe)
 Copying SCF densities to generalized density rwf, IOpCl= 0 IROHF=0.

 **********************************************************************

            Population analysis using the SCF density.

 **********************************************************************

 Orbital symmetries:
       Occupied  (A') (A') (A') (A') (A")
       Virtual   (A') (A') (A') (A') (A") (A') (A') (A')
 The electronic state is 1-A'.
 Alpha  occ. eigenvalues --  -20.59094  -1.30193  -0.63850  -0.52385  -0.49796
 Alpha virt. eigenvalues --    0.13127   0.26302   0.94369   1.12121   1.16331
 Alpha virt. eigenvalues --    1.22867   1.36995   1.65638
          Condensed to atoms (all electrons):
               1          2          3
     1  O    8.279891   0.228802   0.227565
     2  H    0.228802   0.389866  -0.020346
     3  H    0.227565  -0.020346   0.458201
 Mulliken charges:
               1
     1  O   -0.736258
     2  H    0.401678
     3  H    0.334580
 Sum of Mulliken charges =   0.00000
 Mulliken charges with hydrogens summed into heavy atoms:
               1
     1  O    0.000000
 Electronic spatial extent (au):  <R**2>=             21.7089
 Charge=              0.0000 electrons
 Dipole moment (field-independent basis, Debye):
    X=              0.4638    Y=             -2.6020    Z=              0.0000  Tot=              2.6430
 Quadrupole moment (field-independent basis, Debye-Ang):
   XX=             -4.1547   YY=             -5.8731   ZZ=             -7.5512
   XY=              0.8397   XZ=              0.0000   YZ=              0.0000
 Traceless Quadrupole moment (field-independent basis, Debye-Ang):
   XX=              1.7050   YY=             -0.0134   ZZ=             -1.6915
   XY=              0.8397   XZ=              0.0000   YZ=              0.0000
 Octapole moment (field-independent basis, Debye-Ang**2):
  XXX=              0.8399  YYY=             -1.6452  ZZZ=              0.0000  XYY=             -0.6667
  XXY=             -1.6422  XXZ=              0.0000  XZZ=              0.3061  YZZ=             -0.2121
  YYZ=              0.0000  XYZ=              0.0000
 Hexadecapole moment (field-independent basis, Debye-Ang**3):
 XXXX=             -7.2703 YYYY=             -7.7925 ZZZZ=             -5.6031 XXXY=             -0.3524
 XXXZ=              0.0000 YYYX=             -0.0161 YYYZ=              0.0000 ZZZX=              0.0000
 ZZZY=              0.0000 XXYY=             -1.7952 XXZZ=             -2.5207 YYZZ=             -2.4305
 XXYZ=              0.0000 YYXZ=              0.0000 ZZXY=             -0.3512
 N-N= 7.936933378625D+00 E-N=-1.961677117467D+02  KE= 7.555527199646D+01
 Symmetry A'   KE= 7.091724277614D+01
 Symmetry A"   KE= 4.638029220318D+00
 No NMR shielding tensors so no spin-rotation constants.
 Leave Link  601 at Tue Mar 17 13:43:23 2020, MaxMem=    33554432 cpu:         0.1
 (Enter /usr/local/gaussian09d01/g09/l9999.exe)
 1\1\GINC-KARURA\SP\RHF\6-31G\H2O1\RTAKE\17-Mar-2020\0\\#p HF/6-31G\\ch
 k calc\\0,1\O,0,0.049680185,0.091890743,-3.252594829\H,0,0.049680185,0
 .851227743,-2.656551829\H,0,0.049680185,-0.930701735,-2.449908949\\Ver
 sion=ES64L-G09RevD.01\State=1-A'\HF=-75.9224795\RMSD=2.752e-09\Dipole=
 0.,-0.010031,1.0397908\Quadrupole=-1.2576002,1.4508528,-0.1932525,0.,0
 .,-0.3493801\PG=CS [SG(H2O1)]\\@


 THERE ARE TWO THINGS THAT EVERYBODY THINKS THEY CAN DO BETTER THAN
 ANYONE ELSE - PUNCH THE FIRE, AND EDIT A DAILY PAPER.
 -- UNCLE ESEK, "CENTURY MAGAZINE", 1885
 Job cpu time:       0 days  0 hours  0 minutes  0.4 seconds.
 File lengths (MBytes):  RWF=      5 Int=      0 D2E=      0 Chk=      1 Scr=      1
 Normal termination of Gaussian 09 at Tue Mar 17 13:43:23 2020.
