 Entering Gaussian System, Link 0=g09
 Input=./h2o_o1h3_05.gjf
 Output=./h2o_o1h3_05.log
 Initial command:
 /usr/local/gaussian09d01/g09/l1.exe "/scr/Gau-18105.inp" -scrdir="/scr/"
 Entering Link 1 = /usr/local/gaussian09d01/g09/l1.exe PID=     18106.
  
 Copyright (c) 1988,1990,1992,1993,1995,1998,2003,2009,2013,
            Gaussian, Inc.  All Rights Reserved.
  
 This is part of the Gaussian(R) 09 program.  It is based on
 the Gaussian(R) 03 system (copyright 2003, Gaussian, Inc.),
 the Gaussian(R) 98 system (copyright 1998, Gaussian, Inc.),
 the Gaussian(R) 94 system (copyright 1995, Gaussian, Inc.),
 the Gaussian 92(TM) system (copyright 1992, Gaussian, Inc.),
 the Gaussian 90(TM) system (copyright 1990, Gaussian, Inc.),
 the Gaussian 88(TM) system (copyright 1988, Gaussian, Inc.),
 the Gaussian 86(TM) system (copyright 1986, Carnegie Mellon
 University), and the Gaussian 82(TM) system (copyright 1983,
 Carnegie Mellon University). Gaussian is a federally registered
 trademark of Gaussian, Inc.
  
 This software contains proprietary and confidential information,
 including trade secrets, belonging to Gaussian, Inc.
  
 This software is provided under written license and may be
 used, copied, transmitted, or stored only in accord with that
 written license.
  
 The following legend is applicable only to US Government
 contracts under FAR:
  
                    RESTRICTED RIGHTS LEGEND
  
 Use, reproduction and disclosure by the US Government is
 subject to restrictions as set forth in subparagraphs (a)
 and (c) of the Commercial Computer Software - Restricted
 Rights clause in FAR 52.227-19.
  
 Gaussian, Inc.
 340 Quinnipiac St., Bldg. 40, Wallingford CT 06492
  
  
 ---------------------------------------------------------------
 Warning -- This program may not be used in any manner that
 competes with the business of Gaussian, Inc. or will provide
 assistance to any competitor of Gaussian, Inc.  The licensee
 of this program is prohibited from giving any competitor of
 Gaussian, Inc. access to this program.  By using this program,
 the user acknowledges that Gaussian, Inc. is engaged in the
 business of creating and licensing software in the field of
 computational chemistry and represents and warrants to the
 licensee that it is not a competitor of Gaussian, Inc. and that
 it will not use this program in any manner prohibited above.
 ---------------------------------------------------------------
  

 Cite this work as:
 Gaussian 09, Revision D.01,
 M. J. Frisch, G. W. Trucks, H. B. Schlegel, G. E. Scuseria, 
 M. A. Robb, J. R. Cheeseman, G. Scalmani, V. Barone, B. Mennucci, 
 G. A. Petersson, H. Nakatsuji, M. Caricato, X. Li, H. P. Hratchian, 
 A. F. Izmaylov, J. Bloino, G. Zheng, J. L. Sonnenberg, M. Hada, 
 M. Ehara, K. Toyota, R. Fukuda, J. Hasegawa, M. Ishida, T. Nakajima, 
 Y. Honda, O. Kitao, H. Nakai, T. Vreven, J. A. Montgomery, Jr., 
 J. E. Peralta, F. Ogliaro, M. Bearpark, J. J. Heyd, E. Brothers, 
 K. N. Kudin, V. N. Staroverov, T. Keith, R. Kobayashi, J. Normand, 
 K. Raghavachari, A. Rendell, J. C. Burant, S. S. Iyengar, J. Tomasi, 
 M. Cossi, N. Rega, J. M. Millam, M. Klene, J. E. Knox, J. B. Cross, 
 V. Bakken, C. Adamo, J. Jaramillo, R. Gomperts, R. E. Stratmann, 
 O. Yazyev, A. J. Austin, R. Cammi, C. Pomelli, J. W. Ochterski, 
 R. L. Martin, K. Morokuma, V. G. Zakrzewski, G. A. Voth, 
 P. Salvador, J. J. Dannenberg, S. Dapprich, A. D. Daniels, 
 O. Farkas, J. B. Foresman, J. V. Ortiz, J. Cioslowski, 
 and D. J. Fox, Gaussian, Inc., Wallingford CT, 2013.
 
 ******************************************
 Gaussian 09:  ES64L-G09RevD.01 24-Apr-2013
                17-Mar-2020 
 ******************************************
 -----------
 #p HF/6-31G
 -----------
 1/38=1/1;
 2/12=2,17=6,18=5,40=1/2;
 3/5=1,6=6,11=9,16=1,25=1,30=1/1,2,3;
 4//1;
 5/5=2,38=5/2;
 6/7=2,8=2,9=2,10=2,28=1/1;
 99/5=1,9=1/99;
 Leave Link    1 at Tue Mar 17 13:43:19 2020, MaxMem=           0 cpu:         0.0
 (Enter /usr/local/gaussian09d01/g09/l101.exe)
 --------
 chk calc
 --------
 Symbolic Z-matrix:
 Charge =  0 Multiplicity = 1
 O                     0.04968  -0.22275  -3.00561 
 H                     0.04968   0.53658  -2.40957 
 H                     0.04968  -0.61606  -2.69689 
 
 NAtoms=      3 NQM=        3 NQMF=       0 NMMI=      0 NMMIF=      0
                NMic=       0 NMicF=      0.
                    Isotopes and Nuclear Properties:
 (Nuclear quadrupole moments (NQMom) in fm**2, nuclear magnetic moments (NMagM)
  in nuclear magnetons)

  Atom         1           2           3
 IAtWgt=          16           1           1
 AtmWgt=  15.9949146   1.0078250   1.0078250
 NucSpn=           0           1           1
 AtZEff=   0.0000000   0.0000000   0.0000000
 NQMom=    0.0000000   0.0000000   0.0000000
 NMagM=    0.0000000   2.7928460   2.7928460
 AtZNuc=   8.0000000   1.0000000   1.0000000
 Leave Link  101 at Tue Mar 17 13:43:19 2020, MaxMem=    33554432 cpu:         0.0
 (Enter /usr/local/gaussian09d01/g09/l202.exe)
                          Input orientation:                          
 ---------------------------------------------------------------------
 Center     Atomic      Atomic             Coordinates (Angstroms)
 Number     Number       Type             X           Y           Z
 ---------------------------------------------------------------------
      1          8           0        0.049680   -0.222753   -3.005615
      2          1           0        0.049680    0.536584   -2.409572
      3          1           0        0.049680   -0.616058   -2.696889
 ---------------------------------------------------------------------
                    Distance matrix (angstroms):
                    1          2          3
     1  O    0.000000
     2  H    0.965329   0.000000
     3  H    0.500000   1.187912   0.000000
 Stoichiometry    H2O
 Framework group  CS[SG(H2O)]
 Deg. of freedom     3
 Full point group                 CS      NOp   2
 Largest Abelian subgroup         CS      NOp   2
 Largest concise Abelian subgroup C1      NOp   1
                         Standard orientation:                         
 ---------------------------------------------------------------------
 Center     Atomic      Atomic             Coordinates (Angstroms)
 Number     Number       Type             X           Y           Z
 ---------------------------------------------------------------------
      1          8           0        0.000000    0.097600    0.000000
      2          1           0        0.480380   -0.739714    0.000000
      3          1           0       -0.480380   -0.041090    0.000000
 ---------------------------------------------------------------------
 Rotational constants (GHZ):   2350.9736652    547.8833189    444.3334947
 Leave Link  202 at Tue Mar 17 13:43:19 2020, MaxMem=    33554432 cpu:         0.0
 (Enter /usr/local/gaussian09d01/g09/l301.exe)
 Standard basis: 6-31G (6D, 7F)
 Ernie: Thresh=  0.10000D-02 Tol=  0.10000D-05 Strict=F.
 There are    11 symmetry adapted cartesian basis functions of A'  symmetry.
 There are     2 symmetry adapted cartesian basis functions of A"  symmetry.
 There are    11 symmetry adapted basis functions of A'  symmetry.
 There are     2 symmetry adapted basis functions of A"  symmetry.
    13 basis functions,    30 primitive gaussians,    13 cartesian basis functions
     5 alpha electrons        5 beta electrons
       nuclear repulsion energy        13.2977702500 Hartrees.
 IExCor=    0 DFT=F Ex=HF Corr=None ExCW=0 ScaHFX=  1.000000
 ScaDFX=  1.000000  1.000000  1.000000  1.000000 ScalE2=  1.000000  1.000000
 IRadAn=      0 IRanWt=     -1 IRanGd=            0 ICorTp=0 IEmpDi=  4
 NAtoms=    3 NActive=    3 NUniq=    3 SFac= 1.00D+00 NAtFMM=   60 NAOKFM=F Big=F
 Integral buffers will be    131072 words long.
 Raffenetti 1 integral format.
 Two-electron integral symmetry is turned on.
 Leave Link  301 at Tue Mar 17 13:43:19 2020, MaxMem=    33554432 cpu:         0.0
 (Enter /usr/local/gaussian09d01/g09/l302.exe)
 NPDir=0 NMtPBC=     1 NCelOv=     1 NCel=       1 NClECP=     1 NCelD=      1
         NCelK=      1 NCelE2=     1 NClLst=     1 CellRange=     0.0.
 One-electron integrals computed using PRISM.
 NBasis=    13 RedAO= T EigKep=  3.91D-02  NBF=    11     2
 NBsUse=    13 1.00D-06 EigRej= -1.00D+00 NBFU=    11     2
 Leave Link  302 at Tue Mar 17 13:43:19 2020, MaxMem=    33554432 cpu:         0.0
 (Enter /usr/local/gaussian09d01/g09/l303.exe)
 DipDrv:  MaxL=1.
 Leave Link  303 at Tue Mar 17 13:43:19 2020, MaxMem=    33554432 cpu:         0.0
 (Enter /usr/local/gaussian09d01/g09/l401.exe)
 ExpMin= 1.61D-01 ExpMax= 5.48D+03 ExpMxC= 8.25D+02 IAcc=1 IRadAn=         1 AccDes= 0.00D+00
 Harris functional with IExCor=  205 and IRadAn=       1 diagonalized for initial guess.
 HarFok:  IExCor=  205 AccDes= 0.00D+00 IRadAn=         1 IDoV= 1 UseB2=F ITyADJ=14
 ICtDFT=  3500011 ScaDFX=  1.000000  1.000000  1.000000  1.000000
 FoFCou: FMM=F IPFlag=           0 FMFlag=      100000 FMFlg1=           0
         NFxFlg=           0 DoJE=T BraDBF=F KetDBF=T FulRan=T
         wScrn=  0.000000 ICntrl=     500 IOpCl=  0 I1Cent=   200000004 NGrid=           0
         NMat0=    1 NMatS0=      1 NMatT0=    0 NMatD0=    1 NMtDS0=    0 NMtDT0=    0
 Petite list used in FoFCou.
 Harris En= -75.3909688850708    
 JPrj=0 DoOrth=F DoCkMO=F.
 Initial guess orbital symmetries:
       Occupied  (A') (A') (A') (A') (A")
       Virtual   (A') (A') (A') (A") (A') (A') (A') (A')
 The electronic state of the initial guess is 1-A'.
 Leave Link  401 at Tue Mar 17 13:43:19 2020, MaxMem=    33554432 cpu:         0.1
 (Enter /usr/local/gaussian09d01/g09/l502.exe)
 Closed shell SCF:
 Using DIIS extrapolation, IDIIS=  1040.
 Integral symmetry usage will be decided dynamically.
 Keep R1 ints in memory in symmetry-blocked form, NReq=829486.
 IVT=       20162 IEndB=       20162 NGot=    33554432 MDV=    33531252
 LenX=    33531252 LenY=    33530370
 Requested convergence on RMS density matrix=1.00D-08 within 128 cycles.
 Requested convergence on MAX density matrix=1.00D-06.
 Requested convergence on             energy=1.00D-06.
 No special actions if energy rises.
 FoFCou: FMM=F IPFlag=           0 FMFlag=           0 FMFlg1=           0
         NFxFlg=           0 DoJE=F BraDBF=F KetDBF=F FulRan=T
         wScrn=  0.000000 ICntrl=     600 IOpCl=  0 I1Cent=           0 NGrid=           0
         NMat0=    1 NMatS0=     91 NMatT0=    0 NMatD0=    1 NMtDS0=    0 NMtDT0=    0
 Petite list used in FoFCou.

 Cycle   1  Pass 1  IDiag  1:
 E= -74.9781761096384    
 DIIS: error= 1.31D-01 at cycle   1 NSaved=   1.
 NSaved= 1 IEnMin= 1 EnMin= -74.9781761096384     IErMin= 1 ErrMin= 1.31D-01
 ErrMax= 1.31D-01  0.00D+00 EMaxC= 1.00D-01 BMatC= 2.80D-01 BMatP= 2.80D-01
 IDIUse=3 WtCom= 0.00D+00 WtEn= 1.00D+00
 Coeff-Com:  0.100D+01
 Coeff-En:   0.100D+01
 Coeff:      0.100D+01
 Gap=     0.528 Goal=   None    Shift=    0.000
 GapD=    0.528 DampG=2.000 DampE=0.250 DampFc=0.5000 IDamp=-1.
 Damping current iteration by 5.00D-01
 RMSDP=3.74D-02 MaxDP=2.10D-01              OVMax= 1.60D-01

 Cycle   2  Pass 1  IDiag  1:
 E= -75.0950317881435     Delta-E=       -0.116855678505 Rises=F Damp=T
 DIIS: error= 3.37D-02 at cycle   2 NSaved=   2.
 NSaved= 2 IEnMin= 2 EnMin= -75.0950317881435     IErMin= 2 ErrMin= 3.37D-02
 ErrMax= 3.37D-02  0.00D+00 EMaxC= 1.00D-01 BMatC= 2.29D-02 BMatP= 2.80D-01
 IDIUse=3 WtCom= 6.63D-01 WtEn= 3.37D-01
 Coeff-Com: -0.344D+00 0.134D+01
 Coeff-En:   0.000D+00 0.100D+01
 Coeff:     -0.228D+00 0.123D+01
 Gap=     0.721 Goal=   None    Shift=    0.000
 RMSDP=8.06D-03 MaxDP=5.29D-02 DE=-1.17D-01 OVMax= 3.55D-02

 Cycle   3  Pass 1  IDiag  1:
 E= -75.1895002852423     Delta-E=       -0.094468497099 Rises=F Damp=F
 DIIS: error= 5.93D-03 at cycle   3 NSaved=   3.
 NSaved= 3 IEnMin= 3 EnMin= -75.1895002852423     IErMin= 3 ErrMin= 5.93D-03
 ErrMax= 5.93D-03  0.00D+00 EMaxC= 1.00D-01 BMatC= 5.90D-04 BMatP= 2.29D-02
 IDIUse=3 WtCom= 9.41D-01 WtEn= 5.93D-02
 Coeff-Com:  0.125D+00-0.311D+00 0.119D+01
 Coeff-En:   0.000D+00 0.000D+00 0.100D+01
 Coeff:      0.117D+00-0.293D+00 0.118D+01
 Gap=     0.748 Goal=   None    Shift=    0.000
 RMSDP=1.32D-03 MaxDP=6.63D-03 DE=-9.45D-02 OVMax= 4.15D-03

 Cycle   4  Pass 1  IDiag  1:
 E= -75.1899542142536     Delta-E=       -0.000453929011 Rises=F Damp=F
 DIIS: error= 7.41D-04 at cycle   4 NSaved=   4.
 NSaved= 4 IEnMin= 4 EnMin= -75.1899542142536     IErMin= 4 ErrMin= 7.41D-04
 ErrMax= 7.41D-04  0.00D+00 EMaxC= 1.00D-01 BMatC= 8.81D-06 BMatP= 5.90D-04
 IDIUse=3 WtCom= 9.93D-01 WtEn= 7.41D-03
 Coeff-Com: -0.425D-01 0.103D+00-0.470D+00 0.141D+01
 Coeff-En:   0.000D+00 0.000D+00 0.000D+00 0.100D+01
 Coeff:     -0.422D-01 0.102D+00-0.466D+00 0.141D+01
 Gap=     0.750 Goal=   None    Shift=    0.000
 RMSDP=4.15D-04 MaxDP=1.56D-03 DE=-4.54D-04 OVMax= 2.71D-03

 Cycle   5  Pass 1  IDiag  1:
 E= -75.1899745419677     Delta-E=       -0.000020327714 Rises=F Damp=F
 DIIS: error= 1.70D-04 at cycle   5 NSaved=   5.
 NSaved= 5 IEnMin= 5 EnMin= -75.1899745419677     IErMin= 5 ErrMin= 1.70D-04
 ErrMax= 1.70D-04  0.00D+00 EMaxC= 1.00D-01 BMatC= 2.40D-07 BMatP= 8.81D-06
 IDIUse=3 WtCom= 9.98D-01 WtEn= 1.70D-03
 Coeff-Com:  0.826D-02-0.208D-01 0.103D+00-0.432D+00 0.134D+01
 Coeff-En:   0.000D+00 0.000D+00 0.000D+00 0.000D+00 0.100D+01
 Coeff:      0.825D-02-0.208D-01 0.103D+00-0.432D+00 0.134D+01
 Gap=     0.750 Goal=   None    Shift=    0.000
 RMSDP=9.76D-05 MaxDP=4.25D-04 DE=-2.03D-05 OVMax= 6.48D-04

 Cycle   6  Pass 1  IDiag  1:
 E= -75.1899752083536     Delta-E=       -0.000000666386 Rises=F Damp=F
 DIIS: error= 2.09D-05 at cycle   6 NSaved=   6.
 NSaved= 6 IEnMin= 6 EnMin= -75.1899752083536     IErMin= 6 ErrMin= 2.09D-05
 ErrMax= 2.09D-05  0.00D+00 EMaxC= 1.00D-01 BMatC= 6.61D-09 BMatP= 2.40D-07
 IDIUse=1 WtCom= 1.00D+00 WtEn= 0.00D+00
 Coeff-Com: -0.102D-02 0.297D-02-0.166D-01 0.906D-01-0.402D+00 0.133D+01
 Coeff:     -0.102D-02 0.297D-02-0.166D-01 0.906D-01-0.402D+00 0.133D+01
 Gap=     0.750 Goal=   None    Shift=    0.000
 RMSDP=1.18D-05 MaxDP=4.33D-05 DE=-6.66D-07 OVMax= 5.75D-05

 Cycle   7  Pass 1  IDiag  1:
 E= -75.1899752205554     Delta-E=       -0.000000012202 Rises=F Damp=F
 DIIS: error= 3.73D-06 at cycle   7 NSaved=   7.
 NSaved= 7 IEnMin= 7 EnMin= -75.1899752205554     IErMin= 7 ErrMin= 3.73D-06
 ErrMax= 3.73D-06  0.00D+00 EMaxC= 1.00D-01 BMatC= 1.70D-10 BMatP= 6.61D-09
 IDIUse=1 WtCom= 1.00D+00 WtEn= 0.00D+00
 Coeff-Com:  0.178D-04-0.207D-03 0.164D-02-0.134D-01 0.800D-01-0.401D+00
 Coeff-Com:  0.133D+01
 Coeff:      0.178D-04-0.207D-03 0.164D-02-0.134D-01 0.800D-01-0.401D+00
 Coeff:      0.133D+01
 Gap=     0.750 Goal=   None    Shift=    0.000
 RMSDP=1.68D-06 MaxDP=7.94D-06 DE=-1.22D-08 OVMax= 8.49D-06

 Cycle   8  Pass 1  IDiag  1:
 E= -75.1899752208425     Delta-E=       -0.000000000287 Rises=F Damp=F
 DIIS: error= 2.74D-07 at cycle   8 NSaved=   8.
 NSaved= 8 IEnMin= 8 EnMin= -75.1899752208425     IErMin= 8 ErrMin= 2.74D-07
 ErrMax= 2.74D-07  0.00D+00 EMaxC= 1.00D-01 BMatC= 1.00D-12 BMatP= 1.70D-10
 IDIUse=1 WtCom= 1.00D+00 WtEn= 0.00D+00
 Coeff-Com:  0.105D-04 0.524D-05-0.122D-03 0.168D-02-0.117D-01 0.680D-01
 Coeff-Com: -0.275D+00 0.122D+01
 Coeff:      0.105D-04 0.524D-05-0.122D-03 0.168D-02-0.117D-01 0.680D-01
 Coeff:     -0.275D+00 0.122D+01
 Gap=     0.750 Goal=   None    Shift=    0.000
 RMSDP=1.42D-07 MaxDP=4.83D-07 DE=-2.87D-10 OVMax= 5.81D-07

 Cycle   9  Pass 1  IDiag  1:
 E= -75.1899752208442     Delta-E=       -0.000000000002 Rises=F Damp=F
 DIIS: error= 3.60D-08 at cycle   9 NSaved=   9.
 NSaved= 9 IEnMin= 9 EnMin= -75.1899752208442     IErMin= 9 ErrMin= 3.60D-08
 ErrMax= 3.60D-08  0.00D+00 EMaxC= 1.00D-01 BMatC= 2.05D-14 BMatP= 1.00D-12
 IDIUse=1 WtCom= 1.00D+00 WtEn= 0.00D+00
 Coeff-Com:  0.103D-05-0.513D-05 0.261D-04-0.179D-03 0.937D-03-0.477D-02
 Coeff-Com:  0.201D-01-0.181D+00 0.116D+01
 Coeff:      0.103D-05-0.513D-05 0.261D-04-0.179D-03 0.937D-03-0.477D-02
 Coeff:      0.201D-01-0.181D+00 0.116D+01
 Gap=     0.750 Goal=   None    Shift=    0.000
 RMSDP=2.48D-08 MaxDP=1.12D-07 DE=-1.76D-12 OVMax= 1.08D-07

 Cycle  10  Pass 1  IDiag  1:
 E= -75.1899752208444     Delta-E=        0.000000000000 Rises=F Damp=F
 DIIS: error= 1.00D-08 at cycle  10 NSaved=  10.
 NSaved=10 IEnMin=10 EnMin= -75.1899752208444     IErMin=10 ErrMin= 1.00D-08
 ErrMax= 1.00D-08  0.00D+00 EMaxC= 1.00D-01 BMatC= 1.03D-15 BMatP= 2.05D-14
 IDIUse=1 WtCom= 1.00D+00 WtEn= 0.00D+00
 Coeff-Com:  0.739D-07-0.311D-06 0.338D-05-0.258D-04 0.137D-03-0.684D-03
 Coeff-Com:  0.202D-02 0.753D-02-0.279D+00 0.127D+01
 Coeff:      0.739D-07-0.311D-06 0.338D-05-0.258D-04 0.137D-03-0.684D-03
 Coeff:      0.202D-02 0.753D-02-0.279D+00 0.127D+01
 Gap=     0.750 Goal=   None    Shift=    0.000
 RMSDP=7.11D-09 MaxDP=2.95D-08 DE=-1.71D-13 OVMax= 3.10D-08

 SCF Done:  E(RHF) =  -75.1899752208     A.U. after   10 cycles
            NFock= 10  Conv=0.71D-08     -V/T= 1.9627
 KE= 7.810304966763D+01 PE=-2.068856453568D+02 EE= 4.029485021824D+01
 Leave Link  502 at Tue Mar 17 13:43:19 2020, MaxMem=    33554432 cpu:         0.1
 (Enter /usr/local/gaussian09d01/g09/l601.exe)
 Copying SCF densities to generalized density rwf, IOpCl= 0 IROHF=0.

 **********************************************************************

            Population analysis using the SCF density.

 **********************************************************************

 Orbital symmetries:
       Occupied  (A') (A') (A') (A') (A")
       Virtual   (A') (A') (A') (A") (A') (A') (A') (A')
 The electronic state is 1-A'.
 Alpha  occ. eigenvalues --  -20.55139  -1.58778  -0.83511  -0.59212  -0.53004
 Alpha virt. eigenvalues --    0.21978   0.33501   1.00792   1.14710   1.15254
 Alpha virt. eigenvalues --    1.32763   1.75236   2.61506
          Condensed to atoms (all electrons):
               1          2          3
     1  O    7.886254   0.330839   0.269437
     2  H    0.330839   0.362105  -0.081137
     3  H    0.269437  -0.081137   0.713364
 Mulliken charges:
               1
     1  O   -0.486529
     2  H    0.388194
     3  H    0.098336
 Sum of Mulliken charges =   0.00000
 Mulliken charges with hydrogens summed into heavy atoms:
               1
     1  O    0.000000
 Electronic spatial extent (au):  <R**2>=             16.3496
 Charge=              0.0000 electrons
 Dipole moment (field-independent basis, Debye):
    X=             -0.5983    Y=             -2.4715    Z=              0.0000  Tot=              2.5429
 Quadrupole moment (field-independent basis, Debye-Ang):
   XX=             -4.8503   YY=             -5.2974   ZZ=             -6.6238
   XY=             -0.8055   XZ=              0.0000   YZ=              0.0000
 Traceless Quadrupole moment (field-independent basis, Debye-Ang):
   XX=              0.7402   YY=              0.2931   ZZ=             -1.0333
   XY=             -0.8055   XZ=              0.0000   YZ=              0.0000
 Octapole moment (field-independent basis, Debye-Ang**2):
  XXX=             -0.6341  YYY=             -1.9907  ZZZ=              0.0000  XYY=              0.1920
  XXY=             -0.6602  XXZ=              0.0000  XZZ=             -0.2898  YZZ=             -0.4398
  YYZ=              0.0000  XYZ=              0.0000
 Hexadecapole moment (field-independent basis, Debye-Ang**3):
 XXXX=             -3.9945 YYYY=             -5.2116 ZZZZ=             -4.6003 XXXY=              0.1788
 XXXZ=              0.0000 YYYX=             -0.0992 YYYZ=              0.0000 ZZZX=              0.0000
 ZZZY=              0.0000 XXYY=             -1.3758 XXZZ=             -1.4568 YYZZ=             -1.7598
 XXYZ=              0.0000 YYXZ=              0.0000 ZZXY=              0.1195
 N-N= 1.329777025005D+01 E-N=-2.068856454408D+02  KE= 7.810304966763D+01
 Symmetry A'   KE= 7.337659149726D+01
 Symmetry A"   KE= 4.726458170367D+00
 No NMR shielding tensors so no spin-rotation constants.
 Leave Link  601 at Tue Mar 17 13:43:19 2020, MaxMem=    33554432 cpu:         0.1
 (Enter /usr/local/gaussian09d01/g09/l9999.exe)
 1\1\GINC-KARURA\SP\RHF\6-31G\H2O1\RTAKE\17-Mar-2020\0\\#p HF/6-31G\\ch
 k calc\\0,1\O,0,0.049680185,-0.222753096,-3.005614558\H,0,0.049680185,
 0.536583904,-2.409571558\H,0,0.049680185,-0.616057896,-2.69688922\\Ver
 sion=ES64L-G09RevD.01\State=1-A'\HF=-75.1899752\RMSD=7.108e-09\Dipole=
 0.,0.1464785,0.9896752\Quadrupole=-0.768221,0.9199458,-0.1517248,0.,0.
 ,0.3148372\PG=CS [SG(H2O1)]\\@


 BE CAREFUL NOT TO BECOME TOO GOOD OF A SONGBIRD OR 
 THEY'LL THROW YOU INTO A CAGE.

                                    -- SNOOPY TO WOODSTOCK
 Job cpu time:       0 days  0 hours  0 minutes  0.4 seconds.
 File lengths (MBytes):  RWF=      5 Int=      0 D2E=      0 Chk=      1 Scr=      1
 Normal termination of Gaussian 09 at Tue Mar 17 13:43:19 2020.
