 Entering Gaussian System, Link 0=g09
 Input=./h2o_o1h3_06.gjf
 Output=./h2o_o1h3_06.log
 Initial command:
 /usr/local/gaussian09d01/g09/l1.exe "/scr/Gau-18107.inp" -scrdir="/scr/"
 Entering Link 1 = /usr/local/gaussian09d01/g09/l1.exe PID=     18108.
  
 Copyright (c) 1988,1990,1992,1993,1995,1998,2003,2009,2013,
            Gaussian, Inc.  All Rights Reserved.
  
 This is part of the Gaussian(R) 09 program.  It is based on
 the Gaussian(R) 03 system (copyright 2003, Gaussian, Inc.),
 the Gaussian(R) 98 system (copyright 1998, Gaussian, Inc.),
 the Gaussian(R) 94 system (copyright 1995, Gaussian, Inc.),
 the Gaussian 92(TM) system (copyright 1992, Gaussian, Inc.),
 the Gaussian 90(TM) system (copyright 1990, Gaussian, Inc.),
 the Gaussian 88(TM) system (copyright 1988, Gaussian, Inc.),
 the Gaussian 86(TM) system (copyright 1986, Carnegie Mellon
 University), and the Gaussian 82(TM) system (copyright 1983,
 Carnegie Mellon University). Gaussian is a federally registered
 trademark of Gaussian, Inc.
  
 This software contains proprietary and confidential information,
 including trade secrets, belonging to Gaussian, Inc.
  
 This software is provided under written license and may be
 used, copied, transmitted, or stored only in accord with that
 written license.
  
 The following legend is applicable only to US Government
 contracts under FAR:
  
                    RESTRICTED RIGHTS LEGEND
  
 Use, reproduction and disclosure by the US Government is
 subject to restrictions as set forth in subparagraphs (a)
 and (c) of the Commercial Computer Software - Restricted
 Rights clause in FAR 52.227-19.
  
 Gaussian, Inc.
 340 Quinnipiac St., Bldg. 40, Wallingford CT 06492
  
  
 ---------------------------------------------------------------
 Warning -- This program may not be used in any manner that
 competes with the business of Gaussian, Inc. or will provide
 assistance to any competitor of Gaussian, Inc.  The licensee
 of this program is prohibited from giving any competitor of
 Gaussian, Inc. access to this program.  By using this program,
 the user acknowledges that Gaussian, Inc. is engaged in the
 business of creating and licensing software in the field of
 computational chemistry and represents and warrants to the
 licensee that it is not a competitor of Gaussian, Inc. and that
 it will not use this program in any manner prohibited above.
 ---------------------------------------------------------------
  

 Cite this work as:
 Gaussian 09, Revision D.01,
 M. J. Frisch, G. W. Trucks, H. B. Schlegel, G. E. Scuseria, 
 M. A. Robb, J. R. Cheeseman, G. Scalmani, V. Barone, B. Mennucci, 
 G. A. Petersson, H. Nakatsuji, M. Caricato, X. Li, H. P. Hratchian, 
 A. F. Izmaylov, J. Bloino, G. Zheng, J. L. Sonnenberg, M. Hada, 
 M. Ehara, K. Toyota, R. Fukuda, J. Hasegawa, M. Ishida, T. Nakajima, 
 Y. Honda, O. Kitao, H. Nakai, T. Vreven, J. A. Montgomery, Jr., 
 J. E. Peralta, F. Ogliaro, M. Bearpark, J. J. Heyd, E. Brothers, 
 K. N. Kudin, V. N. Staroverov, T. Keith, R. Kobayashi, J. Normand, 
 K. Raghavachari, A. Rendell, J. C. Burant, S. S. Iyengar, J. Tomasi, 
 M. Cossi, N. Rega, J. M. Millam, M. Klene, J. E. Knox, J. B. Cross, 
 V. Bakken, C. Adamo, J. Jaramillo, R. Gomperts, R. E. Stratmann, 
 O. Yazyev, A. J. Austin, R. Cammi, C. Pomelli, J. W. Ochterski, 
 R. L. Martin, K. Morokuma, V. G. Zakrzewski, G. A. Voth, 
 P. Salvador, J. J. Dannenberg, S. Dapprich, A. D. Daniels, 
 O. Farkas, J. B. Foresman, J. V. Ortiz, J. Cioslowski, 
 and D. J. Fox, Gaussian, Inc., Wallingford CT, 2013.
 
 ******************************************
 Gaussian 09:  ES64L-G09RevD.01 24-Apr-2013
                17-Mar-2020 
 ******************************************
 -----------
 #p HF/6-31G
 -----------
 1/38=1/1;
 2/12=2,17=6,18=5,40=1/2;
 3/5=1,6=6,11=9,16=1,25=1,30=1/1,2,3;
 4//1;
 5/5=2,38=5/2;
 6/7=2,8=2,9=2,10=2,28=1/1;
 99/5=1,9=1/99;
 Leave Link    1 at Tue Mar 17 13:43:19 2020, MaxMem=           0 cpu:         0.0
 (Enter /usr/local/gaussian09d01/g09/l101.exe)
 --------
 chk calc
 --------
 Symbolic Z-matrix:
 Charge =  0 Multiplicity = 1
 O                     0.04968  -0.18342  -3.03649 
 H                     0.04968   0.57591  -2.44044 
 H                     0.04968  -0.65539  -2.66602 
 
 NAtoms=      3 NQM=        3 NQMF=       0 NMMI=      0 NMMIF=      0
                NMic=       0 NMicF=      0.
                    Isotopes and Nuclear Properties:
 (Nuclear quadrupole moments (NQMom) in fm**2, nuclear magnetic moments (NMagM)
  in nuclear magnetons)

  Atom         1           2           3
 IAtWgt=          16           1           1
 AtmWgt=  15.9949146   1.0078250   1.0078250
 NucSpn=           0           1           1
 AtZEff=   0.0000000   0.0000000   0.0000000
 NQMom=    0.0000000   0.0000000   0.0000000
 NMagM=    0.0000000   2.7928460   2.7928460
 AtZNuc=   8.0000000   1.0000000   1.0000000
 Leave Link  101 at Tue Mar 17 13:43:19 2020, MaxMem=    33554432 cpu:         0.0
 (Enter /usr/local/gaussian09d01/g09/l202.exe)
                          Input orientation:                          
 ---------------------------------------------------------------------
 Center     Atomic      Atomic             Coordinates (Angstroms)
 Number     Number       Type             X           Y           Z
 ---------------------------------------------------------------------
      1          8           0        0.049680   -0.183423   -3.036487
      2          1           0        0.049680    0.575914   -2.440444
      3          1           0        0.049680   -0.655388   -2.666017
 ---------------------------------------------------------------------
                    Distance matrix (angstroms):
                    1          2          3
     1  O    0.000000
     2  H    0.965329   0.000000
     3  H    0.600000   1.251795   0.000000
 Stoichiometry    H2O
 Framework group  CS[SG(H2O)]
 Deg. of freedom     3
 Full point group                 CS      NOp   2
 Largest Abelian subgroup         CS      NOp   2
 Largest concise Abelian subgroup C1      NOp   1
                         Standard orientation:                         
 ---------------------------------------------------------------------
 Center     Atomic      Atomic             Coordinates (Angstroms)
 Number     Number       Type             X           Y           Z
 ---------------------------------------------------------------------
      1          8           0        0.000000    0.100833    0.000000
      2          1           0        0.557976   -0.686900    0.000000
      3          1           0       -0.557976   -0.119764    0.000000
 ---------------------------------------------------------------------
 Rotational constants (GHZ):   1666.0031309    536.9051089    406.0475948
 Leave Link  202 at Tue Mar 17 13:43:19 2020, MaxMem=    33554432 cpu:         0.0
 (Enter /usr/local/gaussian09d01/g09/l301.exe)
 Standard basis: 6-31G (6D, 7F)
 Ernie: Thresh=  0.10000D-02 Tol=  0.10000D-05 Strict=F.
 There are    11 symmetry adapted cartesian basis functions of A'  symmetry.
 There are     2 symmetry adapted cartesian basis functions of A"  symmetry.
 There are    11 symmetry adapted basis functions of A'  symmetry.
 There are     2 symmetry adapted basis functions of A"  symmetry.
    13 basis functions,    30 primitive gaussians,    13 cartesian basis functions
     5 alpha electrons        5 beta electrons
       nuclear repulsion energy        11.8638974959 Hartrees.
 IExCor=    0 DFT=F Ex=HF Corr=None ExCW=0 ScaHFX=  1.000000
 ScaDFX=  1.000000  1.000000  1.000000  1.000000 ScalE2=  1.000000  1.000000
 IRadAn=      0 IRanWt=     -1 IRanGd=            0 ICorTp=0 IEmpDi=  4
 NAtoms=    3 NActive=    3 NUniq=    3 SFac= 1.00D+00 NAtFMM=   60 NAOKFM=F Big=F
 Integral buffers will be    131072 words long.
 Raffenetti 1 integral format.
 Two-electron integral symmetry is turned on.
 Leave Link  301 at Tue Mar 17 13:43:19 2020, MaxMem=    33554432 cpu:         0.0
 (Enter /usr/local/gaussian09d01/g09/l302.exe)
 NPDir=0 NMtPBC=     1 NCelOv=     1 NCel=       1 NClECP=     1 NCelD=      1
         NCelK=      1 NCelE2=     1 NClLst=     1 CellRange=     0.0.
 One-electron integrals computed using PRISM.
 NBasis=    13 RedAO= T EigKep=  4.99D-02  NBF=    11     2
 NBsUse=    13 1.00D-06 EigRej= -1.00D+00 NBFU=    11     2
 Leave Link  302 at Tue Mar 17 13:43:19 2020, MaxMem=    33554432 cpu:         0.1
 (Enter /usr/local/gaussian09d01/g09/l303.exe)
 DipDrv:  MaxL=1.
 Leave Link  303 at Tue Mar 17 13:43:19 2020, MaxMem=    33554432 cpu:         0.0
 (Enter /usr/local/gaussian09d01/g09/l401.exe)
 ExpMin= 1.61D-01 ExpMax= 5.48D+03 ExpMxC= 8.25D+02 IAcc=1 IRadAn=         1 AccDes= 0.00D+00
 Harris functional with IExCor=  205 and IRadAn=       1 diagonalized for initial guess.
 HarFok:  IExCor=  205 AccDes= 0.00D+00 IRadAn=         1 IDoV= 1 UseB2=F ITyADJ=14
 ICtDFT=  3500011 ScaDFX=  1.000000  1.000000  1.000000  1.000000
 FoFCou: FMM=F IPFlag=           0 FMFlag=      100000 FMFlg1=           0
         NFxFlg=           0 DoJE=T BraDBF=F KetDBF=T FulRan=T
         wScrn=  0.000000 ICntrl=     500 IOpCl=  0 I1Cent=   200000004 NGrid=           0
         NMat0=    1 NMatS0=      1 NMatT0=    0 NMatD0=    1 NMtDS0=    0 NMtDT0=    0
 Petite list used in FoFCou.
 Harris En= -75.7904657177468    
 JPrj=0 DoOrth=F DoCkMO=F.
 Initial guess orbital symmetries:
       Occupied  (A') (A') (A') (A') (A")
       Virtual   (A') (A') (A') (A") (A') (A') (A') (A')
 The electronic state of the initial guess is 1-A'.
 Leave Link  401 at Tue Mar 17 13:43:20 2020, MaxMem=    33554432 cpu:         0.0
 (Enter /usr/local/gaussian09d01/g09/l502.exe)
 Closed shell SCF:
 Using DIIS extrapolation, IDIIS=  1040.
 Integral symmetry usage will be decided dynamically.
 Keep R1 ints in memory in symmetry-blocked form, NReq=829486.
 IVT=       20162 IEndB=       20162 NGot=    33554432 MDV=    33531252
 LenX=    33531252 LenY=    33530370
 Requested convergence on RMS density matrix=1.00D-08 within 128 cycles.
 Requested convergence on MAX density matrix=1.00D-06.
 Requested convergence on             energy=1.00D-06.
 No special actions if energy rises.
 FoFCou: FMM=F IPFlag=           0 FMFlag=           0 FMFlg1=           0
         NFxFlg=           0 DoJE=F BraDBF=F KetDBF=F FulRan=T
         wScrn=  0.000000 ICntrl=     600 IOpCl=  0 I1Cent=           0 NGrid=           0
         NMat0=    1 NMatS0=     91 NMatT0=    0 NMatD0=    1 NMtDS0=    0 NMtDT0=    0
 Petite list used in FoFCou.

 Cycle   1  Pass 1  IDiag  1:
 E= -75.4843248237591    
 DIIS: error= 1.13D-01 at cycle   1 NSaved=   1.
 NSaved= 1 IEnMin= 1 EnMin= -75.4843248237591     IErMin= 1 ErrMin= 1.13D-01
 ErrMax= 1.13D-01  0.00D+00 EMaxC= 1.00D-01 BMatC= 2.14D-01 BMatP= 2.14D-01
 IDIUse=3 WtCom= 0.00D+00 WtEn= 1.00D+00
 Coeff-Com:  0.100D+01
 Coeff-En:   0.100D+01
 Coeff:      0.100D+01
 Gap=     0.557 Goal=   None    Shift=    0.000
 GapD=    0.557 DampG=2.000 DampE=0.250 DampFc=0.5000 IDamp=-1.
 Damping current iteration by 5.00D-01
 RMSDP=3.14D-02 MaxDP=1.75D-01              OVMax= 1.38D-01

 Cycle   2  Pass 1  IDiag  1:
 E= -75.5710743968545     Delta-E=       -0.086749573095 Rises=F Damp=T
 DIIS: error= 3.02D-02 at cycle   2 NSaved=   2.
 NSaved= 2 IEnMin= 2 EnMin= -75.5710743968545     IErMin= 2 ErrMin= 3.02D-02
 ErrMax= 3.02D-02  0.00D+00 EMaxC= 1.00D-01 BMatC= 1.77D-02 BMatP= 2.14D-01
 IDIUse=3 WtCom= 6.98D-01 WtEn= 3.02D-01
 Coeff-Com: -0.333D+00 0.133D+01
 Coeff-En:   0.000D+00 0.100D+01
 Coeff:     -0.233D+00 0.123D+01
 Gap=     0.717 Goal=   None    Shift=    0.000
 RMSDP=6.42D-03 MaxDP=4.09D-02 DE=-8.67D-02 OVMax= 3.16D-02

 Cycle   3  Pass 1  IDiag  1:
 E= -75.6409797785263     Delta-E=       -0.069905381672 Rises=F Damp=F
 DIIS: error= 4.78D-03 at cycle   3 NSaved=   3.
 NSaved= 3 IEnMin= 3 EnMin= -75.6409797785263     IErMin= 3 ErrMin= 4.78D-03
 ErrMax= 4.78D-03  0.00D+00 EMaxC= 1.00D-01 BMatC= 3.73D-04 BMatP= 1.77D-02
 IDIUse=3 WtCom= 9.52D-01 WtEn= 4.78D-02
 Coeff-Com:  0.105D+00-0.270D+00 0.116D+01
 Coeff-En:   0.000D+00 0.000D+00 0.100D+01
 Coeff:      0.100D+00-0.257D+00 0.116D+01
 Gap=     0.738 Goal=   None    Shift=    0.000
 RMSDP=1.07D-03 MaxDP=5.69D-03 DE=-6.99D-02 OVMax= 3.56D-03

 Cycle   4  Pass 1  IDiag  1:
 E= -75.6412822291653     Delta-E=       -0.000302450639 Rises=F Damp=F
 DIIS: error= 6.61D-04 at cycle   4 NSaved=   4.
 NSaved= 4 IEnMin= 4 EnMin= -75.6412822291653     IErMin= 4 ErrMin= 6.61D-04
 ErrMax= 6.61D-04  0.00D+00 EMaxC= 1.00D-01 BMatC= 7.06D-06 BMatP= 3.73D-04
 IDIUse=3 WtCom= 9.93D-01 WtEn= 6.61D-03
 Coeff-Com: -0.369D-01 0.914D-01-0.477D+00 0.142D+01
 Coeff-En:   0.000D+00 0.000D+00 0.000D+00 0.100D+01
 Coeff:     -0.366D-01 0.908D-01-0.474D+00 0.142D+01
 Gap=     0.739 Goal=   None    Shift=    0.000
 RMSDP=3.66D-04 MaxDP=1.43D-03 DE=-3.02D-04 OVMax= 2.42D-03

 Cycle   5  Pass 1  IDiag  1:
 E= -75.6412986179038     Delta-E=       -0.000016388739 Rises=F Damp=F
 DIIS: error= 1.37D-04 at cycle   5 NSaved=   5.
 NSaved= 5 IEnMin= 5 EnMin= -75.6412986179038     IErMin= 5 ErrMin= 1.37D-04
 ErrMax= 1.37D-04  0.00D+00 EMaxC= 1.00D-01 BMatC= 1.55D-07 BMatP= 7.06D-06
 IDIUse=3 WtCom= 9.99D-01 WtEn= 1.37D-03
 Coeff-Com:  0.879D-02-0.221D-01 0.121D+00-0.466D+00 0.136D+01
 Coeff-En:   0.000D+00 0.000D+00 0.000D+00 0.000D+00 0.100D+01
 Coeff:      0.878D-02-0.221D-01 0.121D+00-0.466D+00 0.136D+01
 Gap=     0.739 Goal=   None    Shift=    0.000
 RMSDP=8.07D-05 MaxDP=3.57D-04 DE=-1.64D-05 OVMax= 5.29D-04

 Cycle   6  Pass 1  IDiag  1:
 E= -75.6412990732149     Delta-E=       -0.000000455311 Rises=F Damp=F
 DIIS: error= 1.68D-05 at cycle   6 NSaved=   6.
 NSaved= 6 IEnMin= 6 EnMin= -75.6412990732149     IErMin= 6 ErrMin= 1.68D-05
 ErrMax= 1.68D-05  0.00D+00 EMaxC= 1.00D-01 BMatC= 3.87D-09 BMatP= 1.55D-07
 IDIUse=1 WtCom= 1.00D+00 WtEn= 0.00D+00
 Coeff-Com: -0.150D-02 0.399D-02-0.229D-01 0.102D+00-0.401D+00 0.132D+01
 Coeff:     -0.150D-02 0.399D-02-0.229D-01 0.102D+00-0.401D+00 0.132D+01
 Gap=     0.739 Goal=   None    Shift=    0.000
 RMSDP=9.48D-06 MaxDP=3.34D-05 DE=-4.55D-07 OVMax= 4.83D-05

 Cycle   7  Pass 1  IDiag  1:
 E= -75.6412990813768     Delta-E=       -0.000000008162 Rises=F Damp=F
 DIIS: error= 2.90D-06 at cycle   7 NSaved=   7.
 NSaved= 7 IEnMin= 7 EnMin= -75.6412990813768     IErMin= 7 ErrMin= 2.90D-06
 ErrMax= 2.90D-06  0.00D+00 EMaxC= 1.00D-01 BMatC= 1.31D-10 BMatP= 3.87D-09
 IDIUse=1 WtCom= 1.00D+00 WtEn= 0.00D+00
 Coeff-Com:  0.987D-04-0.354D-03 0.228D-02-0.132D-01 0.726D-01-0.401D+00
 Coeff-Com:  0.134D+01
 Coeff:      0.987D-04-0.354D-03 0.228D-02-0.132D-01 0.726D-01-0.401D+00
 Coeff:      0.134D+01
 Gap=     0.739 Goal=   None    Shift=    0.000
 RMSDP=1.51D-06 MaxDP=7.99D-06 DE=-8.16D-09 OVMax= 7.80D-06

 Cycle   8  Pass 1  IDiag  1:
 E= -75.6412990816217     Delta-E=       -0.000000000245 Rises=F Damp=F
 DIIS: error= 2.95D-07 at cycle   8 NSaved=   8.
 NSaved= 8 IEnMin= 8 EnMin= -75.6412990816217     IErMin= 8 ErrMin= 2.95D-07
 ErrMax= 2.95D-07  0.00D+00 EMaxC= 1.00D-01 BMatC= 1.02D-12 BMatP= 1.31D-10
 IDIUse=1 WtCom= 1.00D+00 WtEn= 0.00D+00
 Coeff-Com:  0.150D-04-0.134D-04-0.701D-06 0.947D-03-0.938D-02 0.731D-01
 Coeff-Com: -0.311D+00 0.125D+01
 Coeff:      0.150D-04-0.134D-04-0.701D-06 0.947D-03-0.938D-02 0.731D-01
 Coeff:     -0.311D+00 0.125D+01
 Gap=     0.739 Goal=   None    Shift=    0.000
 RMSDP=1.43D-07 MaxDP=5.35D-07 DE=-2.45D-10 OVMax= 6.12D-07

 Cycle   9  Pass 1  IDiag  1:
 E= -75.6412990816236     Delta-E=       -0.000000000002 Rises=F Damp=F
 DIIS: error= 4.33D-08 at cycle   9 NSaved=   9.
 NSaved= 9 IEnMin= 9 EnMin= -75.6412990816236     IErMin= 9 ErrMin= 4.33D-08
 ErrMax= 4.33D-08  0.00D+00 EMaxC= 1.00D-01 BMatC= 1.90D-14 BMatP= 1.02D-12
 IDIUse=1 WtCom= 1.00D+00 WtEn= 0.00D+00
 Coeff-Com:  0.495D-06-0.680D-05 0.494D-04-0.398D-03 0.260D-02-0.172D-01
 Coeff-Com:  0.689D-01-0.331D+00 0.128D+01
 Coeff:      0.495D-06-0.680D-05 0.494D-04-0.398D-03 0.260D-02-0.172D-01
 Coeff:      0.689D-01-0.331D+00 0.128D+01
 Gap=     0.739 Goal=   None    Shift=    0.000
 RMSDP=2.96D-08 MaxDP=1.29D-07 DE=-1.83D-12 OVMax= 1.47D-07

 Cycle  10  Pass 1  IDiag  1:
 E= -75.6412990816237     Delta-E=        0.000000000000 Rises=F Damp=F
 DIIS: error= 6.06D-09 at cycle  10 NSaved=  10.
 NSaved=10 IEnMin=10 EnMin= -75.6412990816237     IErMin=10 ErrMin= 6.06D-09
 ErrMax= 6.06D-09  0.00D+00 EMaxC= 1.00D-01 BMatC= 3.50D-16 BMatP= 1.90D-14
 IDIUse=1 WtCom= 1.00D+00 WtEn= 0.00D+00
 Coeff-Com:  0.300D-07 0.532D-07 0.251D-06 0.808D-06-0.197D-04 0.170D-03
 Coeff-Com: -0.852D-03 0.796D-02-0.158D+00 0.115D+01
 Coeff:      0.300D-07 0.532D-07 0.251D-06 0.808D-06-0.197D-04 0.170D-03
 Coeff:     -0.852D-03 0.796D-02-0.158D+00 0.115D+01
 Gap=     0.739 Goal=   None    Shift=    0.000
 RMSDP=4.67D-09 MaxDP=1.96D-08 DE=-8.53D-14 OVMax= 2.19D-08

 SCF Done:  E(RHF) =  -75.6412990816     A.U. after   10 cycles
            NFock= 10  Conv=0.47D-08     -V/T= 1.9782
 KE= 7.732825418584D+01 PE=-2.043929757917D+02 EE= 3.955952502833D+01
 Leave Link  502 at Tue Mar 17 13:43:20 2020, MaxMem=    33554432 cpu:         0.1
 (Enter /usr/local/gaussian09d01/g09/l601.exe)
 Copying SCF densities to generalized density rwf, IOpCl= 0 IROHF=0.

 **********************************************************************

            Population analysis using the SCF density.

 **********************************************************************

 Orbital symmetries:
       Occupied  (A') (A') (A') (A') (A")
       Virtual   (A') (A') (A') (A") (A') (A') (A') (A')
 The electronic state is 1-A'.
 Alpha  occ. eigenvalues --  -20.53543  -1.52192  -0.81057  -0.58456  -0.52036
 Alpha virt. eigenvalues --    0.21911   0.33189   1.02952   1.15652   1.16772
 Alpha virt. eigenvalues --    1.32605   1.72530   2.10800
          Condensed to atoms (all electrons):
               1          2          3
     1  O    7.968525   0.313144   0.308797
     2  H    0.313144   0.362782  -0.062334
     3  H    0.308797  -0.062334   0.549480
 Mulliken charges:
               1
     1  O   -0.590466
     2  H    0.386408
     3  H    0.204057
 Sum of Mulliken charges =   0.00000
 Mulliken charges with hydrogens summed into heavy atoms:
               1
     1  O    0.000000
 Electronic spatial extent (au):  <R**2>=             16.9453
 Charge=              0.0000 electrons
 Dipole moment (field-independent basis, Debye):
    X=             -0.4752    Y=             -2.5154    Z=              0.0000  Tot=              2.5599
 Quadrupole moment (field-independent basis, Debye-Ang):
   XX=             -4.7080   YY=             -5.5934   ZZ=             -6.7739
   XY=             -0.7268   XZ=              0.0000   YZ=              0.0000
 Traceless Quadrupole moment (field-independent basis, Debye-Ang):
   XX=              0.9837   YY=              0.0984   ZZ=             -1.0821
   XY=             -0.7268   XZ=              0.0000   YZ=              0.0000
 Octapole moment (field-independent basis, Debye-Ang**2):
  XXX=             -0.5236  YYY=             -1.9047  ZZZ=              0.0000  XYY=              0.2239
  XXY=             -0.7862  XXZ=              0.0000  XZZ=             -0.2528  YZZ=             -0.4658
  YYZ=              0.0000  XYZ=              0.0000
 Hexadecapole moment (field-independent basis, Debye-Ang**3):
 XXXX=             -4.3831 YYYY=             -5.4150 ZZZZ=             -4.7505 XXXY=              0.1475
 XXXZ=              0.0000 YYYX=             -0.0343 YYYZ=              0.0000 ZZZX=              0.0000
 ZZZY=              0.0000 XXYY=             -1.4213 XXZZ=             -1.5763 YYZZ=             -1.7887
 XXYZ=              0.0000 YYXZ=              0.0000 ZZXY=              0.1285
 N-N= 1.186389749588D+01 E-N=-2.043929758396D+02  KE= 7.732825418584D+01
 Symmetry A'   KE= 7.268717170232D+01
 Symmetry A"   KE= 4.641082483527D+00
 No NMR shielding tensors so no spin-rotation constants.
 Leave Link  601 at Tue Mar 17 13:43:20 2020, MaxMem=    33554432 cpu:         0.1
 (Enter /usr/local/gaussian09d01/g09/l9999.exe)
 1\1\GINC-KARURA\SP\RHF\6-31G\H2O1\RTAKE\17-Mar-2020\0\\#p HF/6-31G\\ch
 k calc\\0,1\O,0,0.049680185,-0.183422616,-3.036487092\H,0,0.049680185,
 0.575914384,-2.440444092\H,0,0.049680185,-0.655388376,-2.666016686\\Ve
 rsion=ES64L-G09RevD.01\State=1-A'\HF=-75.6412991\RMSD=4.673e-09\Dipole
 =0.,0.1028234,1.0018698\Quadrupole=-0.8045381,0.9731671,-0.168629,0.,0
 .,0.2727819\PG=CS [SG(H2O1)]\\@


 ... THE UNIVERSE IS NOT ONLY QUEERER THAN WE SUPPOSE,
 BUT QUEERER THAN WE CAN SUPPOSE ... 

                                   -- J. B. S. HALDANE
 Job cpu time:       0 days  0 hours  0 minutes  0.4 seconds.
 File lengths (MBytes):  RWF=      5 Int=      0 D2E=      0 Chk=      1 Scr=      1
 Normal termination of Gaussian 09 at Tue Mar 17 13:43:20 2020.
