 Entering Gaussian System, Link 0=g09
 Input=./h2o_o1h3_14.gjf
 Output=./h2o_o1h3_14.log
 Initial command:
 /usr/local/gaussian09d01/g09/l1.exe "/scr/Gau-18126.inp" -scrdir="/scr/"
 Entering Link 1 = /usr/local/gaussian09d01/g09/l1.exe PID=     18127.
  
 Copyright (c) 1988,1990,1992,1993,1995,1998,2003,2009,2013,
            Gaussian, Inc.  All Rights Reserved.
  
 This is part of the Gaussian(R) 09 program.  It is based on
 the Gaussian(R) 03 system (copyright 2003, Gaussian, Inc.),
 the Gaussian(R) 98 system (copyright 1998, Gaussian, Inc.),
 the Gaussian(R) 94 system (copyright 1995, Gaussian, Inc.),
 the Gaussian 92(TM) system (copyright 1992, Gaussian, Inc.),
 the Gaussian 90(TM) system (copyright 1990, Gaussian, Inc.),
 the Gaussian 88(TM) system (copyright 1988, Gaussian, Inc.),
 the Gaussian 86(TM) system (copyright 1986, Carnegie Mellon
 University), and the Gaussian 82(TM) system (copyright 1983,
 Carnegie Mellon University). Gaussian is a federally registered
 trademark of Gaussian, Inc.
  
 This software contains proprietary and confidential information,
 including trade secrets, belonging to Gaussian, Inc.
  
 This software is provided under written license and may be
 used, copied, transmitted, or stored only in accord with that
 written license.
  
 The following legend is applicable only to US Government
 contracts under FAR:
  
                    RESTRICTED RIGHTS LEGEND
  
 Use, reproduction and disclosure by the US Government is
 subject to restrictions as set forth in subparagraphs (a)
 and (c) of the Commercial Computer Software - Restricted
 Rights clause in FAR 52.227-19.
  
 Gaussian, Inc.
 340 Quinnipiac St., Bldg. 40, Wallingford CT 06492
  
  
 ---------------------------------------------------------------
 Warning -- This program may not be used in any manner that
 competes with the business of Gaussian, Inc. or will provide
 assistance to any competitor of Gaussian, Inc.  The licensee
 of this program is prohibited from giving any competitor of
 Gaussian, Inc. access to this program.  By using this program,
 the user acknowledges that Gaussian, Inc. is engaged in the
 business of creating and licensing software in the field of
 computational chemistry and represents and warrants to the
 licensee that it is not a competitor of Gaussian, Inc. and that
 it will not use this program in any manner prohibited above.
 ---------------------------------------------------------------
  

 Cite this work as:
 Gaussian 09, Revision D.01,
 M. J. Frisch, G. W. Trucks, H. B. Schlegel, G. E. Scuseria, 
 M. A. Robb, J. R. Cheeseman, G. Scalmani, V. Barone, B. Mennucci, 
 G. A. Petersson, H. Nakatsuji, M. Caricato, X. Li, H. P. Hratchian, 
 A. F. Izmaylov, J. Bloino, G. Zheng, J. L. Sonnenberg, M. Hada, 
 M. Ehara, K. Toyota, R. Fukuda, J. Hasegawa, M. Ishida, T. Nakajima, 
 Y. Honda, O. Kitao, H. Nakai, T. Vreven, J. A. Montgomery, Jr., 
 J. E. Peralta, F. Ogliaro, M. Bearpark, J. J. Heyd, E. Brothers, 
 K. N. Kudin, V. N. Staroverov, T. Keith, R. Kobayashi, J. Normand, 
 K. Raghavachari, A. Rendell, J. C. Burant, S. S. Iyengar, J. Tomasi, 
 M. Cossi, N. Rega, J. M. Millam, M. Klene, J. E. Knox, J. B. Cross, 
 V. Bakken, C. Adamo, J. Jaramillo, R. Gomperts, R. E. Stratmann, 
 O. Yazyev, A. J. Austin, R. Cammi, C. Pomelli, J. W. Ochterski, 
 R. L. Martin, K. Morokuma, V. G. Zakrzewski, G. A. Voth, 
 P. Salvador, J. J. Dannenberg, S. Dapprich, A. D. Daniels, 
 O. Farkas, J. B. Foresman, J. V. Ortiz, J. Cioslowski, 
 and D. J. Fox, Gaussian, Inc., Wallingford CT, 2013.
 
 ******************************************
 Gaussian 09:  ES64L-G09RevD.01 24-Apr-2013
                17-Mar-2020 
 ******************************************
 -----------
 #p HF/6-31G
 -----------
 1/38=1/1;
 2/12=2,17=6,18=5,40=1/2;
 3/5=1,6=6,11=9,16=1,25=1,30=1/1,2,3;
 4//1;
 5/5=2,38=5/2;
 6/7=2,8=2,9=2,10=2,28=1/1;
 99/5=1,9=1/99;
 Leave Link    1 at Tue Mar 17 13:43:23 2020, MaxMem=           0 cpu:         0.0
 (Enter /usr/local/gaussian09d01/g09/l101.exe)
 --------
 chk calc
 --------
 Symbolic Z-matrix:
 Charge =  0 Multiplicity = 1
 O                     0.04968   0.13122  -3.28347 
 H                     0.04968   0.89056  -2.68742 
 H                     0.04968  -0.97003  -2.41904 
 
 NAtoms=      3 NQM=        3 NQMF=       0 NMMI=      0 NMMIF=      0
                NMic=       0 NMicF=      0.
                    Isotopes and Nuclear Properties:
 (Nuclear quadrupole moments (NQMom) in fm**2, nuclear magnetic moments (NMagM)
  in nuclear magnetons)

  Atom         1           2           3
 IAtWgt=          16           1           1
 AtmWgt=  15.9949146   1.0078250   1.0078250
 NucSpn=           0           1           1
 AtZEff=   0.0000000   0.0000000   0.0000000
 NQMom=    0.0000000   0.0000000   0.0000000
 NMagM=    0.0000000   2.7928460   2.7928460
 AtZNuc=   8.0000000   1.0000000   1.0000000
 Leave Link  101 at Tue Mar 17 13:43:23 2020, MaxMem=    33554432 cpu:         0.0
 (Enter /usr/local/gaussian09d01/g09/l202.exe)
                          Input orientation:                          
 ---------------------------------------------------------------------
 Center     Atomic      Atomic             Coordinates (Angstroms)
 Number     Number       Type             X           Y           Z
 ---------------------------------------------------------------------
      1          8           0        0.049680    0.131221   -3.283467
      2          1           0        0.049680    0.890558   -2.687424
      3          1           0        0.049680   -0.970032   -2.419036
 ---------------------------------------------------------------------
                    Distance matrix (angstroms):
                    1          2          3
     1  O    0.000000
     2  H    0.965329   0.000000
     3  H    1.400000   1.879848   0.000000
 Stoichiometry    H2O
 Framework group  CS[SG(H2O)]
 Deg. of freedom     3
 Full point group                 CS      NOp   2
 Largest Abelian subgroup         CS      NOp   2
 Largest concise Abelian subgroup C1      NOp   1
                         Standard orientation:                         
 ---------------------------------------------------------------------
 Center     Atomic      Atomic             Coordinates (Angstroms)
 Number     Number       Type             X           Y           Z
 ---------------------------------------------------------------------
      1          8           0        0.000000    0.149996    0.000000
      2          1           0        0.875214   -0.257264    0.000000
      3          1           0       -0.875214   -0.942707    0.000000
 ---------------------------------------------------------------------
 Rotational constants (GHZ):    655.6334768    250.5870704    181.2950200
 Leave Link  202 at Tue Mar 17 13:43:23 2020, MaxMem=    33554432 cpu:         0.0
 (Enter /usr/local/gaussian09d01/g09/l301.exe)
 Standard basis: 6-31G (6D, 7F)
 Ernie: Thresh=  0.10000D-02 Tol=  0.10000D-05 Strict=F.
 There are    11 symmetry adapted cartesian basis functions of A'  symmetry.
 There are     2 symmetry adapted cartesian basis functions of A"  symmetry.
 There are    11 symmetry adapted basis functions of A'  symmetry.
 There are     2 symmetry adapted basis functions of A"  symmetry.
    13 basis functions,    30 primitive gaussians,    13 cartesian basis functions
     5 alpha electrons        5 beta electrons
       nuclear repulsion energy         7.6908362456 Hartrees.
 IExCor=    0 DFT=F Ex=HF Corr=None ExCW=0 ScaHFX=  1.000000
 ScaDFX=  1.000000  1.000000  1.000000  1.000000 ScalE2=  1.000000  1.000000
 IRadAn=      0 IRanWt=     -1 IRanGd=            0 ICorTp=0 IEmpDi=  4
 NAtoms=    3 NActive=    3 NUniq=    3 SFac= 1.00D+00 NAtFMM=   60 NAOKFM=F Big=F
 Integral buffers will be    131072 words long.
 Raffenetti 1 integral format.
 Two-electron integral symmetry is turned on.
 Leave Link  301 at Tue Mar 17 13:43:23 2020, MaxMem=    33554432 cpu:         0.0
 (Enter /usr/local/gaussian09d01/g09/l302.exe)
 NPDir=0 NMtPBC=     1 NCelOv=     1 NCel=       1 NClECP=     1 NCelD=      1
         NCelK=      1 NCelE2=     1 NClLst=     1 CellRange=     0.0.
 One-electron integrals computed using PRISM.
 NBasis=    13 RedAO= T EigKep=  1.17D-01  NBF=    11     2
 NBsUse=    13 1.00D-06 EigRej= -1.00D+00 NBFU=    11     2
 Leave Link  302 at Tue Mar 17 13:43:23 2020, MaxMem=    33554432 cpu:         0.1
 (Enter /usr/local/gaussian09d01/g09/l303.exe)
 DipDrv:  MaxL=1.
 Leave Link  303 at Tue Mar 17 13:43:23 2020, MaxMem=    33554432 cpu:         0.0
 (Enter /usr/local/gaussian09d01/g09/l401.exe)
 ExpMin= 1.61D-01 ExpMax= 5.48D+03 ExpMxC= 8.25D+02 IAcc=1 IRadAn=         1 AccDes= 0.00D+00
 Harris functional with IExCor=  205 and IRadAn=       1 diagonalized for initial guess.
 HarFok:  IExCor=  205 AccDes= 0.00D+00 IRadAn=         1 IDoV= 1 UseB2=F ITyADJ=14
 ICtDFT=  3500011 ScaDFX=  1.000000  1.000000  1.000000  1.000000
 FoFCou: FMM=F IPFlag=           0 FMFlag=      100000 FMFlg1=           0
         NFxFlg=           0 DoJE=T BraDBF=F KetDBF=T FulRan=T
         wScrn=  0.000000 ICntrl=     500 IOpCl=  0 I1Cent=   200000004 NGrid=           0
         NMat0=    1 NMatS0=      1 NMatT0=    0 NMatD0=    1 NMtDS0=    0 NMtDT0=    0
 Petite list used in FoFCou.
 Harris En= -76.0215430937893    
 JPrj=0 DoOrth=F DoCkMO=F.
 Initial guess orbital symmetries:
       Occupied  (A') (A') (A') (A') (A")
       Virtual   (A') (A') (A') (A") (A') (A') (A') (A')
 The electronic state of the initial guess is 1-A'.
 Leave Link  401 at Tue Mar 17 13:43:23 2020, MaxMem=    33554432 cpu:         0.1
 (Enter /usr/local/gaussian09d01/g09/l502.exe)
 Closed shell SCF:
 Using DIIS extrapolation, IDIIS=  1040.
 Integral symmetry usage will be decided dynamically.
 Keep R1 ints in memory in symmetry-blocked form, NReq=829359.
 IVT=       20162 IEndB=       20162 NGot=    33554432 MDV=    33531252
 LenX=    33531252 LenY=    33530370
 Requested convergence on RMS density matrix=1.00D-08 within 128 cycles.
 Requested convergence on MAX density matrix=1.00D-06.
 Requested convergence on             energy=1.00D-06.
 No special actions if energy rises.
 FoFCou: FMM=F IPFlag=           0 FMFlag=           0 FMFlg1=           0
         NFxFlg=           0 DoJE=F BraDBF=F KetDBF=F FulRan=T
         wScrn=  0.000000 ICntrl=     600 IOpCl=  0 I1Cent=           0 NGrid=           0
         NMat0=    1 NMatS0=     91 NMatT0=    0 NMatD0=    1 NMtDS0=    0 NMtDT0=    0
 Petite list used in FoFCou.

 Cycle   1  Pass 1  IDiag  1:
 E= -75.7924165854651    
 DIIS: error= 7.59D-02 at cycle   1 NSaved=   1.
 NSaved= 1 IEnMin= 1 EnMin= -75.7924165854651     IErMin= 1 ErrMin= 7.59D-02
 ErrMax= 7.59D-02  0.00D+00 EMaxC= 1.00D-01 BMatC= 1.22D-01 BMatP= 1.22D-01
 IDIUse=3 WtCom= 2.41D-01 WtEn= 7.59D-01
 Coeff-Com:  0.100D+01
 Coeff-En:   0.100D+01
 Coeff:      0.100D+01
 Gap=     0.405 Goal=   None    Shift=    0.000
 GapD=    0.405 DampG=2.000 DampE=0.500 DampFc=1.0000 IDamp=-1.
 RMSDP=2.84D-02 MaxDP=1.54D-01              OVMax= 1.80D-01

 Cycle   2  Pass 1  IDiag  1:
 E= -75.8437970620170     Delta-E=       -0.051380476552 Rises=F Damp=F
 DIIS: error= 7.44D-02 at cycle   2 NSaved=   2.
 NSaved= 2 IEnMin= 2 EnMin= -75.8437970620170     IErMin= 2 ErrMin= 7.44D-02
 ErrMax= 7.44D-02  0.00D+00 EMaxC= 1.00D-01 BMatC= 7.27D-02 BMatP= 1.22D-01
 IDIUse=3 WtCom= 2.56D-01 WtEn= 7.44D-01
 Coeff-Com:  0.430D+00 0.570D+00
 Coeff-En:   0.281D+00 0.719D+00
 Coeff:      0.319D+00 0.681D+00
 Gap=     0.598 Goal=   None    Shift=    0.000
 RMSDP=1.53D-02 MaxDP=7.93D-02 DE=-5.14D-02 OVMax= 7.54D-02

 Cycle   3  Pass 1  IDiag  1:
 E= -75.8949428439033     Delta-E=       -0.051145781886 Rises=F Damp=F
 DIIS: error= 9.86D-03 at cycle   3 NSaved=   3.
 NSaved= 3 IEnMin= 3 EnMin= -75.8949428439033     IErMin= 3 ErrMin= 9.86D-03
 ErrMax= 9.86D-03  0.00D+00 EMaxC= 1.00D-01 BMatC= 2.35D-03 BMatP= 7.27D-02
 IDIUse=3 WtCom= 9.01D-01 WtEn= 9.86D-02
 Coeff-Com: -0.564D-01 0.976D-01 0.959D+00
 Coeff-En:   0.000D+00 0.000D+00 0.100D+01
 Coeff:     -0.508D-01 0.880D-01 0.963D+00
 Gap=     0.591 Goal=   None    Shift=    0.000
 RMSDP=2.75D-03 MaxDP=1.68D-02 DE=-5.11D-02 OVMax= 2.50D-02

 Cycle   4  Pass 1  IDiag  1:
 E= -75.8973130944265     Delta-E=       -0.002370250523 Rises=F Damp=F
 DIIS: error= 3.07D-03 at cycle   4 NSaved=   4.
 NSaved= 4 IEnMin= 4 EnMin= -75.8973130944265     IErMin= 4 ErrMin= 3.07D-03
 ErrMax= 3.07D-03  0.00D+00 EMaxC= 1.00D-01 BMatC= 7.70D-05 BMatP= 2.35D-03
 IDIUse=3 WtCom= 9.69D-01 WtEn= 3.07D-02
 Coeff-Com:  0.146D-01-0.842D-01-0.371D+00 0.144D+01
 Coeff-En:   0.000D+00 0.000D+00 0.000D+00 0.100D+01
 Coeff:      0.141D-01-0.816D-01-0.359D+00 0.143D+01
 Gap=     0.602 Goal=   None    Shift=    0.000
 RMSDP=7.98D-04 MaxDP=4.87D-03 DE=-2.37D-03 OVMax= 4.31D-03

 Cycle   5  Pass 1  IDiag  1:
 E= -75.8974160477542     Delta-E=       -0.000102953328 Rises=F Damp=F
 DIIS: error= 2.69D-04 at cycle   5 NSaved=   5.
 NSaved= 5 IEnMin= 5 EnMin= -75.8974160477542     IErMin= 5 ErrMin= 2.69D-04
 ErrMax= 2.69D-04  0.00D+00 EMaxC= 1.00D-01 BMatC= 7.72D-07 BMatP= 7.70D-05
 IDIUse=3 WtCom= 9.97D-01 WtEn= 2.69D-03
 Coeff-Com: -0.338D-02 0.260D-01 0.104D+00-0.539D+00 0.141D+01
 Coeff-En:   0.000D+00 0.000D+00 0.000D+00 0.000D+00 0.100D+01
 Coeff:     -0.337D-02 0.260D-01 0.104D+00-0.538D+00 0.141D+01
 Gap=     0.603 Goal=   None    Shift=    0.000
 RMSDP=1.45D-04 MaxDP=6.37D-04 DE=-1.03D-04 OVMax= 1.08D-03

 Cycle   6  Pass 1  IDiag  1:
 E= -75.8974181857350     Delta-E=       -0.000002137981 Rises=F Damp=F
 DIIS: error= 3.69D-05 at cycle   6 NSaved=   6.
 NSaved= 6 IEnMin= 6 EnMin= -75.8974181857350     IErMin= 6 ErrMin= 3.69D-05
 ErrMax= 3.69D-05  0.00D+00 EMaxC= 1.00D-01 BMatC= 2.82D-08 BMatP= 7.72D-07
 IDIUse=1 WtCom= 1.00D+00 WtEn= 0.00D+00
 Coeff-Com:  0.118D-02-0.993D-02-0.393D-01 0.227D+00-0.680D+00 0.150D+01
 Coeff:      0.118D-02-0.993D-02-0.393D-01 0.227D+00-0.680D+00 0.150D+01
 Gap=     0.603 Goal=   None    Shift=    0.000
 RMSDP=2.66D-05 MaxDP=1.21D-04 DE=-2.14D-06 OVMax= 1.99D-04

 Cycle   7  Pass 1  IDiag  1:
 E= -75.8974182803158     Delta-E=       -0.000000094581 Rises=F Damp=F
 DIIS: error= 1.13D-05 at cycle   7 NSaved=   7.
 NSaved= 7 IEnMin= 7 EnMin= -75.8974182803158     IErMin= 7 ErrMin= 1.13D-05
 ErrMax= 1.13D-05  0.00D+00 EMaxC= 1.00D-01 BMatC= 3.08D-09 BMatP= 2.82D-08
 IDIUse=1 WtCom= 1.00D+00 WtEn= 0.00D+00
 Coeff-Com: -0.131D-03 0.146D-02 0.582D-02-0.451D-01 0.157D+00-0.641D+00
 Coeff-Com:  0.152D+01
 Coeff:     -0.131D-03 0.146D-02 0.582D-02-0.451D-01 0.157D+00-0.641D+00
 Coeff:      0.152D+01
 Gap=     0.603 Goal=   None    Shift=    0.000
 RMSDP=9.82D-06 MaxDP=4.46D-05 DE=-9.46D-08 OVMax= 8.22D-05

 Cycle   8  Pass 1  IDiag  1:
 E= -75.8974182907397     Delta-E=       -0.000000010424 Rises=F Damp=F
 DIIS: error= 2.38D-06 at cycle   8 NSaved=   8.
 NSaved= 8 IEnMin= 8 EnMin= -75.8974182907397     IErMin= 8 ErrMin= 2.38D-06
 ErrMax= 2.38D-06  0.00D+00 EMaxC= 1.00D-01 BMatC= 6.96D-11 BMatP= 3.08D-09
 IDIUse=1 WtCom= 1.00D+00 WtEn= 0.00D+00
 Coeff-Com: -0.276D-04 0.675D-04 0.287D-03 0.369D-02-0.195D-01 0.163D+00
 Coeff-Com: -0.581D+00 0.143D+01
 Coeff:     -0.276D-04 0.675D-04 0.287D-03 0.369D-02-0.195D-01 0.163D+00
 Coeff:     -0.581D+00 0.143D+01
 Gap=     0.603 Goal=   None    Shift=    0.000
 RMSDP=1.88D-06 MaxDP=5.22D-06 DE=-1.04D-08 OVMax= 1.43D-05

 Cycle   9  Pass 1  IDiag  1:
 E= -75.8974182910361     Delta-E=       -0.000000000296 Rises=F Damp=F
 DIIS: error= 4.18D-07 at cycle   9 NSaved=   9.
 NSaved= 9 IEnMin= 9 EnMin= -75.8974182910361     IErMin= 9 ErrMin= 4.18D-07
 ErrMax= 4.18D-07  0.00D+00 EMaxC= 1.00D-01 BMatC= 2.15D-12 BMatP= 6.96D-11
 IDIUse=1 WtCom= 1.00D+00 WtEn= 0.00D+00
 Coeff-Com:  0.113D-04-0.410D-04-0.170D-03-0.738D-03 0.477D-02-0.471D-01
 Coeff-Com:  0.180D+00-0.577D+00 0.144D+01
 Coeff:      0.113D-04-0.410D-04-0.170D-03-0.738D-03 0.477D-02-0.471D-01
 Coeff:      0.180D+00-0.577D+00 0.144D+01
 Gap=     0.603 Goal=   None    Shift=    0.000
 RMSDP=3.28D-07 MaxDP=1.09D-06 DE=-2.96D-10 OVMax= 1.86D-06

 Cycle  10  Pass 1  IDiag  1:
 E= -75.8974182910434     Delta-E=       -0.000000000007 Rises=F Damp=F
 DIIS: error= 5.64D-08 at cycle  10 NSaved=  10.
 NSaved=10 IEnMin=10 EnMin= -75.8974182910434     IErMin=10 ErrMin= 5.64D-08
 ErrMax= 5.64D-08  0.00D+00 EMaxC= 1.00D-01 BMatC= 2.90D-14 BMatP= 2.15D-12
 IDIUse=1 WtCom= 1.00D+00 WtEn= 0.00D+00
 Coeff-Com: -0.156D-05 0.329D-05 0.138D-04 0.230D-03-0.114D-02 0.923D-02
 Coeff-Com: -0.342D-01 0.121D+00-0.374D+00 0.128D+01
 Coeff:     -0.156D-05 0.329D-05 0.138D-04 0.230D-03-0.114D-02 0.923D-02
 Coeff:     -0.342D-01 0.121D+00-0.374D+00 0.128D+01
 Gap=     0.603 Goal=   None    Shift=    0.000
 RMSDP=2.17D-08 MaxDP=1.19D-07 DE=-7.29D-12 OVMax= 1.07D-07

 Cycle  11  Pass 1  IDiag  1:
 E= -75.8974182910434     Delta-E=        0.000000000000 Rises=F Damp=F
 DIIS: error= 5.99D-09 at cycle  11 NSaved=  11.
 NSaved=11 IEnMin=10 EnMin= -75.8974182910434     IErMin=11 ErrMin= 5.99D-09
 ErrMax= 5.99D-09  0.00D+00 EMaxC= 1.00D-01 BMatC= 7.78D-16 BMatP= 2.90D-14
 IDIUse=1 WtCom= 1.00D+00 WtEn= 0.00D+00
 Coeff-Com:  0.282D-06-0.607D-06-0.272D-05-0.393D-04 0.198D-03-0.165D-02
 Coeff-Com:  0.636D-02-0.241D-01 0.823D-01-0.350D+00 0.129D+01
 Coeff:      0.282D-06-0.607D-06-0.272D-05-0.393D-04 0.198D-03-0.165D-02
 Coeff:      0.636D-02-0.241D-01 0.823D-01-0.350D+00 0.129D+01
 Gap=     0.603 Goal=   None    Shift=    0.000
 RMSDP=3.88D-09 MaxDP=1.37D-08 DE= 1.42D-14 OVMax= 2.56D-08

 SCF Done:  E(RHF) =  -75.8974182910     A.U. after   11 cycles
            NFock= 11  Conv=0.39D-08     -V/T= 2.0053
 KE= 7.549572466626D+01 PE=-1.956139220493D+02 EE= 3.652994284632D+01
 Leave Link  502 at Tue Mar 17 13:43:23 2020, MaxMem=    33554432 cpu:         0.1
 (Enter /usr/local/gaussian09d01/g09/l601.exe)
 Copying SCF densities to generalized density rwf, IOpCl= 0 IROHF=0.

 **********************************************************************

            Population analysis using the SCF density.

 **********************************************************************

 Orbital symmetries:
       Occupied  (A') (A') (A') (A') (A")
       Virtual   (A') (A') (A') (A') (A") (A') (A') (A')
 The electronic state is 1-A'.
 Alpha  occ. eigenvalues --  -20.59707  -1.29588  -0.62983  -0.50799  -0.49839
 Alpha virt. eigenvalues --    0.10436   0.25806   0.93526   1.12205   1.16304
 Alpha virt. eigenvalues --    1.22935   1.36527   1.63207
          Condensed to atoms (all electrons):
               1          2          3
     1  O    8.260918   0.224046   0.219879
     2  H    0.224046   0.390937  -0.016808
     3  H    0.219879  -0.016808   0.493910
 Mulliken charges:
               1
     1  O   -0.704844
     2  H    0.401825
     3  H    0.303019
 Sum of Mulliken charges =   0.00000
 Mulliken charges with hydrogens summed into heavy atoms:
               1
     1  O    0.000000
 Electronic spatial extent (au):  <R**2>=             22.5535
 Charge=              0.0000 electrons
 Dipole moment (field-independent basis, Debye):
    X=              0.5977    Y=             -2.5514    Z=              0.0000  Tot=              2.6205
 Quadrupole moment (field-independent basis, Debye-Ang):
   XX=             -4.1903   YY=             -5.7096   ZZ=             -7.6258
   XY=              1.0517   XZ=              0.0000   YZ=              0.0000
 Traceless Quadrupole moment (field-independent basis, Debye-Ang):
   XX=              1.6516   YY=              0.1323   ZZ=             -1.7839
   XY=              1.0517   XZ=              0.0000   YZ=              0.0000
 Octapole moment (field-independent basis, Debye-Ang**2):
  XXX=              1.1344  YYY=             -1.7338  ZZZ=              0.0000  XYY=             -0.9022
  XXY=             -1.6523  XXZ=              0.0000  XZZ=              0.3916  YZZ=             -0.1126
  YYZ=              0.0000  XYZ=              0.0000
 Hexadecapole moment (field-independent basis, Debye-Ang**3):
 XXXX=             -7.7857 YYYY=             -8.4398 ZZZZ=             -5.7087 XXXY=             -0.5727
 XXXZ=              0.0000 YYYX=              0.0154 YYYZ=              0.0000 ZZZX=              0.0000
 ZZZY=              0.0000 XXYY=             -1.8481 XXZZ=             -2.6493 YYZZ=             -2.6532
 XXYZ=              0.0000 YYXZ=              0.0000 ZZXY=             -0.4929
 N-N= 7.690836245639D+00 E-N=-1.956139219490D+02  KE= 7.549572466626D+01
 Symmetry A'   KE= 7.083540499551D+01
 Symmetry A"   KE= 4.660319670748D+00
 No NMR shielding tensors so no spin-rotation constants.
 Leave Link  601 at Tue Mar 17 13:43:23 2020, MaxMem=    33554432 cpu:         0.1
 (Enter /usr/local/gaussian09d01/g09/l9999.exe)
 1\1\GINC-KARURA\SP\RHF\6-31G\H2O1\RTAKE\17-Mar-2020\0\\#p HF/6-31G\\ch
 k calc\\0,1\O,0,0.049680185,0.131221223,-3.283467363\H,0,0.049680185,0
 .890558223,-2.687424363\H,0,0.049680185,-0.970032215,-2.419036415\\Ver
 sion=ES64L-G09RevD.01\State=1-A'\HF=-75.8974183\RMSD=3.884e-09\Dipole=
 0.,0.0001534,1.0309782\Quadrupole=-1.3262614,1.5162765,-0.1900151,0.,0
 .,-0.4499364\PG=CS [SG(H2O1)]\\@


 THERE ARE TWO THINGS THAT EVERYBODY THINKS THEY CAN DO BETTER THAN
 ANYONE ELSE - PUNCH THE FIRE, AND EDIT A DAILY PAPER.
 -- UNCLE ESEK, "CENTURY MAGAZINE", 1885
 Job cpu time:       0 days  0 hours  0 minutes  0.4 seconds.
 File lengths (MBytes):  RWF=      5 Int=      0 D2E=      0 Chk=      1 Scr=      1
 Normal termination of Gaussian 09 at Tue Mar 17 13:43:23 2020.
