 Entering Gaussian System, Link 0=g09
 Input=./h2o_o1h3_10.gjf
 Output=./h2o_o1h3_10.log
 Initial command:
 /usr/local/gaussian09d01/g09/l1.exe "/scr/Gau-18116.inp" -scrdir="/scr/"
 Entering Link 1 = /usr/local/gaussian09d01/g09/l1.exe PID=     18117.
  
 Copyright (c) 1988,1990,1992,1993,1995,1998,2003,2009,2013,
            Gaussian, Inc.  All Rights Reserved.
  
 This is part of the Gaussian(R) 09 program.  It is based on
 the Gaussian(R) 03 system (copyright 2003, Gaussian, Inc.),
 the Gaussian(R) 98 system (copyright 1998, Gaussian, Inc.),
 the Gaussian(R) 94 system (copyright 1995, Gaussian, Inc.),
 the Gaussian 92(TM) system (copyright 1992, Gaussian, Inc.),
 the Gaussian 90(TM) system (copyright 1990, Gaussian, Inc.),
 the Gaussian 88(TM) system (copyright 1988, Gaussian, Inc.),
 the Gaussian 86(TM) system (copyright 1986, Carnegie Mellon
 University), and the Gaussian 82(TM) system (copyright 1983,
 Carnegie Mellon University). Gaussian is a federally registered
 trademark of Gaussian, Inc.
  
 This software contains proprietary and confidential information,
 including trade secrets, belonging to Gaussian, Inc.
  
 This software is provided under written license and may be
 used, copied, transmitted, or stored only in accord with that
 written license.
  
 The following legend is applicable only to US Government
 contracts under FAR:
  
                    RESTRICTED RIGHTS LEGEND
  
 Use, reproduction and disclosure by the US Government is
 subject to restrictions as set forth in subparagraphs (a)
 and (c) of the Commercial Computer Software - Restricted
 Rights clause in FAR 52.227-19.
  
 Gaussian, Inc.
 340 Quinnipiac St., Bldg. 40, Wallingford CT 06492
  
  
 ---------------------------------------------------------------
 Warning -- This program may not be used in any manner that
 competes with the business of Gaussian, Inc. or will provide
 assistance to any competitor of Gaussian, Inc.  The licensee
 of this program is prohibited from giving any competitor of
 Gaussian, Inc. access to this program.  By using this program,
 the user acknowledges that Gaussian, Inc. is engaged in the
 business of creating and licensing software in the field of
 computational chemistry and represents and warrants to the
 licensee that it is not a competitor of Gaussian, Inc. and that
 it will not use this program in any manner prohibited above.
 ---------------------------------------------------------------
  

 Cite this work as:
 Gaussian 09, Revision D.01,
 M. J. Frisch, G. W. Trucks, H. B. Schlegel, G. E. Scuseria, 
 M. A. Robb, J. R. Cheeseman, G. Scalmani, V. Barone, B. Mennucci, 
 G. A. Petersson, H. Nakatsuji, M. Caricato, X. Li, H. P. Hratchian, 
 A. F. Izmaylov, J. Bloino, G. Zheng, J. L. Sonnenberg, M. Hada, 
 M. Ehara, K. Toyota, R. Fukuda, J. Hasegawa, M. Ishida, T. Nakajima, 
 Y. Honda, O. Kitao, H. Nakai, T. Vreven, J. A. Montgomery, Jr., 
 J. E. Peralta, F. Ogliaro, M. Bearpark, J. J. Heyd, E. Brothers, 
 K. N. Kudin, V. N. Staroverov, T. Keith, R. Kobayashi, J. Normand, 
 K. Raghavachari, A. Rendell, J. C. Burant, S. S. Iyengar, J. Tomasi, 
 M. Cossi, N. Rega, J. M. Millam, M. Klene, J. E. Knox, J. B. Cross, 
 V. Bakken, C. Adamo, J. Jaramillo, R. Gomperts, R. E. Stratmann, 
 O. Yazyev, A. J. Austin, R. Cammi, C. Pomelli, J. W. Ochterski, 
 R. L. Martin, K. Morokuma, V. G. Zakrzewski, G. A. Voth, 
 P. Salvador, J. J. Dannenberg, S. Dapprich, A. D. Daniels, 
 O. Farkas, J. B. Foresman, J. V. Ortiz, J. Cioslowski, 
 and D. J. Fox, Gaussian, Inc., Wallingford CT, 2013.
 
 ******************************************
 Gaussian 09:  ES64L-G09RevD.01 24-Apr-2013
                17-Mar-2020 
 ******************************************
 -----------
 #p HF/6-31G
 -----------
 1/38=1/1;
 2/12=2,17=6,18=5,40=1/2;
 3/5=1,6=6,11=9,16=1,25=1,30=1/1,2,3;
 4//1;
 5/5=2,38=5/2;
 6/7=2,8=2,9=2,10=2,28=1/1;
 99/5=1,9=1/99;
 Leave Link    1 at Tue Mar 17 13:43:21 2020, MaxMem=           0 cpu:         0.0
 (Enter /usr/local/gaussian09d01/g09/l101.exe)
 --------
 chk calc
 --------
 Symbolic Z-matrix:
 Charge =  0 Multiplicity = 1
 O                     0.04968  -0.0261   -3.15998 
 H                     0.04968   0.73324  -2.56393 
 H                     0.04968  -0.81271  -2.54253 
 
 NAtoms=      3 NQM=        3 NQMF=       0 NMMI=      0 NMMIF=      0
                NMic=       0 NMicF=      0.
                    Isotopes and Nuclear Properties:
 (Nuclear quadrupole moments (NQMom) in fm**2, nuclear magnetic moments (NMagM)
  in nuclear magnetons)

  Atom         1           2           3
 IAtWgt=          16           1           1
 AtmWgt=  15.9949146   1.0078250   1.0078250
 NucSpn=           0           1           1
 AtZEff=   0.0000000   0.0000000   0.0000000
 NQMom=    0.0000000   0.0000000   0.0000000
 NMagM=    0.0000000   2.7928460   2.7928460
 AtZNuc=   8.0000000   1.0000000   1.0000000
 Leave Link  101 at Tue Mar 17 13:43:21 2020, MaxMem=    33554432 cpu:         0.0
 (Enter /usr/local/gaussian09d01/g09/l202.exe)
                          Input orientation:                          
 ---------------------------------------------------------------------
 Center     Atomic      Atomic             Coordinates (Angstroms)
 Number     Number       Type             X           Y           Z
 ---------------------------------------------------------------------
      1          8           0        0.049680   -0.026101   -3.159977
      2          1           0        0.049680    0.733236   -2.563934
      3          1           0        0.049680   -0.812710   -2.542527
 ---------------------------------------------------------------------
                    Distance matrix (angstroms):
                    1          2          3
     1  O    0.000000
     2  H    0.965329   0.000000
     3  H    1.000000   1.546095   0.000000
 Stoichiometry    H2O
 Framework group  CS[SG(H2O)]
 Deg. of freedom     3
 Full point group                 CS      NOp   2
 Largest Abelian subgroup         CS      NOp   2
 Largest concise Abelian subgroup C1      NOp   1
                         Standard orientation:                         
 ---------------------------------------------------------------------
 Center     Atomic      Atomic             Coordinates (Angstroms)
 Number     Number       Type             X           Y           Z
 ---------------------------------------------------------------------
      1          8           0        0.000000    0.121380    0.000000
      2          1           0        0.772538   -0.457451    0.000000
      3          1           0       -0.772538   -0.513589    0.000000
 ---------------------------------------------------------------------
 Rotational constants (GHZ):    768.7329026    418.8903744    271.1422213
 Leave Link  202 at Tue Mar 17 13:43:21 2020, MaxMem=    33554432 cpu:         0.0
 (Enter /usr/local/gaussian09d01/g09/l301.exe)
 Standard basis: 6-31G (6D, 7F)
 Ernie: Thresh=  0.10000D-02 Tol=  0.10000D-05 Strict=F.
 There are    11 symmetry adapted cartesian basis functions of A'  symmetry.
 There are     2 symmetry adapted cartesian basis functions of A"  symmetry.
 There are    11 symmetry adapted basis functions of A'  symmetry.
 There are     2 symmetry adapted basis functions of A"  symmetry.
    13 basis functions,    30 primitive gaussians,    13 cartesian basis functions
     5 alpha electrons        5 beta electrons
       nuclear repulsion energy         8.9611511513 Hartrees.
 IExCor=    0 DFT=F Ex=HF Corr=None ExCW=0 ScaHFX=  1.000000
 ScaDFX=  1.000000  1.000000  1.000000  1.000000 ScalE2=  1.000000  1.000000
 IRadAn=      0 IRanWt=     -1 IRanGd=            0 ICorTp=0 IEmpDi=  4
 NAtoms=    3 NActive=    3 NUniq=    3 SFac= 1.00D+00 NAtFMM=   60 NAOKFM=F Big=F
 Integral buffers will be    131072 words long.
 Raffenetti 1 integral format.
 Two-electron integral symmetry is turned on.
 Leave Link  301 at Tue Mar 17 13:43:21 2020, MaxMem=    33554432 cpu:         0.0
 (Enter /usr/local/gaussian09d01/g09/l302.exe)
 NPDir=0 NMtPBC=     1 NCelOv=     1 NCel=       1 NClECP=     1 NCelD=      1
         NCelK=      1 NCelE2=     1 NClLst=     1 CellRange=     0.0.
 One-electron integrals computed using PRISM.
 NBasis=    13 RedAO= T EigKep=  1.00D-01  NBF=    11     2
 NBsUse=    13 1.00D-06 EigRej= -1.00D+00 NBFU=    11     2
 Leave Link  302 at Tue Mar 17 13:43:21 2020, MaxMem=    33554432 cpu:         0.1
 (Enter /usr/local/gaussian09d01/g09/l303.exe)
 DipDrv:  MaxL=1.
 Leave Link  303 at Tue Mar 17 13:43:21 2020, MaxMem=    33554432 cpu:         0.0
 (Enter /usr/local/gaussian09d01/g09/l401.exe)
 ExpMin= 1.61D-01 ExpMax= 5.48D+03 ExpMxC= 8.25D+02 IAcc=1 IRadAn=         1 AccDes= 0.00D+00
 Harris functional with IExCor=  205 and IRadAn=       1 diagonalized for initial guess.
 HarFok:  IExCor=  205 AccDes= 0.00D+00 IRadAn=         1 IDoV= 1 UseB2=F ITyADJ=14
 ICtDFT=  3500011 ScaDFX=  1.000000  1.000000  1.000000  1.000000
 FoFCou: FMM=F IPFlag=           0 FMFlag=      100000 FMFlg1=           0
         NFxFlg=           0 DoJE=T BraDBF=F KetDBF=T FulRan=T
         wScrn=  0.000000 ICntrl=     500 IOpCl=  0 I1Cent=   200000004 NGrid=           0
         NMat0=    1 NMatS0=      1 NMatT0=    0 NMatD0=    1 NMtDS0=    0 NMtDT0=    0
 Petite list used in FoFCou.
 Harris En= -76.0847157610550    
 JPrj=0 DoOrth=F DoCkMO=F.
 Initial guess orbital symmetries:
       Occupied  (A') (A') (A') (A') (A")
       Virtual   (A') (A') (A') (A") (A') (A') (A') (A')
 The electronic state of the initial guess is 1-A'.
 Leave Link  401 at Tue Mar 17 13:43:21 2020, MaxMem=    33554432 cpu:         0.1
 (Enter /usr/local/gaussian09d01/g09/l502.exe)
 Closed shell SCF:
 Using DIIS extrapolation, IDIIS=  1040.
 Integral symmetry usage will be decided dynamically.
 Keep R1 ints in memory in symmetry-blocked form, NReq=829416.
 IVT=       20162 IEndB=       20162 NGot=    33554432 MDV=    33531252
 LenX=    33531252 LenY=    33530370
 Requested convergence on RMS density matrix=1.00D-08 within 128 cycles.
 Requested convergence on MAX density matrix=1.00D-06.
 Requested convergence on             energy=1.00D-06.
 No special actions if energy rises.
 FoFCou: FMM=F IPFlag=           0 FMFlag=           0 FMFlg1=           0
         NFxFlg=           0 DoJE=F BraDBF=F KetDBF=F FulRan=T
         wScrn=  0.000000 ICntrl=     600 IOpCl=  0 I1Cent=           0 NGrid=           0
         NMat0=    1 NMatS0=     91 NMatT0=    0 NMatD0=    1 NMtDS0=    0 NMtDT0=    0
 Petite list used in FoFCou.

 Cycle   1  Pass 1  IDiag  1:
 E= -75.8989810825399    
 DIIS: error= 9.29D-02 at cycle   1 NSaved=   1.
 NSaved= 1 IEnMin= 1 EnMin= -75.8989810825399     IErMin= 1 ErrMin= 9.29D-02
 ErrMax= 9.29D-02  0.00D+00 EMaxC= 1.00D-01 BMatC= 1.14D-01 BMatP= 1.14D-01
 IDIUse=3 WtCom= 7.11D-02 WtEn= 9.29D-01
 Coeff-Com:  0.100D+01
 Coeff-En:   0.100D+01
 Coeff:      0.100D+01
 Gap=     0.570 Goal=   None    Shift=    0.000
 GapD=    0.570 DampG=2.000 DampE=0.500 DampFc=1.0000 IDamp=-1.
 RMSDP=2.32D-02 MaxDP=1.23D-01              OVMax= 1.22D-01

 Cycle   2  Pass 1  IDiag  1:
 E= -75.9530174730164     Delta-E=       -0.054036390477 Rises=F Damp=F
 DIIS: error= 5.40D-02 at cycle   2 NSaved=   2.
 NSaved= 2 IEnMin= 2 EnMin= -75.9530174730164     IErMin= 2 ErrMin= 5.40D-02
 ErrMax= 5.40D-02  0.00D+00 EMaxC= 1.00D-01 BMatC= 4.12D-02 BMatP= 1.14D-01
 IDIUse=3 WtCom= 4.60D-01 WtEn= 5.40D-01
 Coeff-Com:  0.366D+00 0.634D+00
 Coeff-En:   0.130D+00 0.870D+00
 Coeff:      0.239D+00 0.761D+00
 Gap=     0.716 Goal=   None    Shift=    0.000
 RMSDP=1.15D-02 MaxDP=5.99D-02 DE=-5.40D-02 OVMax= 4.08D-02

 Cycle   3  Pass 1  IDiag  1:
 E= -75.9801459153608     Delta-E=       -0.027128442344 Rises=F Damp=F
 DIIS: error= 1.30D-02 at cycle   3 NSaved=   3.
 NSaved= 3 IEnMin= 3 EnMin= -75.9801459153608     IErMin= 3 ErrMin= 1.30D-02
 ErrMax= 1.30D-02  0.00D+00 EMaxC= 1.00D-01 BMatC= 1.97D-03 BMatP= 4.12D-02
 IDIUse=3 WtCom= 8.70D-01 WtEn= 1.30D-01
 Coeff-Com: -0.360D-01 0.139D+00 0.896D+00
 Coeff-En:   0.000D+00 0.000D+00 0.100D+01
 Coeff:     -0.313D-01 0.121D+00 0.910D+00
 Gap=     0.693 Goal=   None    Shift=    0.000
 RMSDP=2.18D-03 MaxDP=1.21D-02 DE=-2.71D-02 OVMax= 1.18D-02

 Cycle   4  Pass 1  IDiag  1:
 E= -75.9816703185236     Delta-E=       -0.001524403163 Rises=F Damp=F
 DIIS: error= 1.76D-03 at cycle   4 NSaved=   4.
 NSaved= 4 IEnMin= 4 EnMin= -75.9816703185236     IErMin= 4 ErrMin= 1.76D-03
 ErrMax= 1.76D-03  0.00D+00 EMaxC= 1.00D-01 BMatC= 2.50D-05 BMatP= 1.97D-03
 IDIUse=3 WtCom= 9.82D-01 WtEn= 1.76D-02
 Coeff-Com:  0.874D-02-0.773D-01-0.284D+00 0.135D+01
 Coeff-En:   0.000D+00 0.000D+00 0.000D+00 0.100D+01
 Coeff:      0.858D-02-0.759D-01-0.279D+00 0.135D+01
 Gap=     0.697 Goal=   None    Shift=    0.000
 RMSDP=3.52D-04 MaxDP=2.49D-03 DE=-1.52D-03 OVMax= 1.04D-03

 Cycle   5  Pass 1  IDiag  1:
 E= -75.9816948987094     Delta-E=       -0.000024580186 Rises=F Damp=F
 DIIS: error= 1.49D-04 at cycle   5 NSaved=   5.
 NSaved= 5 IEnMin= 5 EnMin= -75.9816948987094     IErMin= 5 ErrMin= 1.49D-04
 ErrMax= 1.49D-04  0.00D+00 EMaxC= 1.00D-01 BMatC= 1.38D-07 BMatP= 2.50D-05
 IDIUse=3 WtCom= 9.99D-01 WtEn= 1.49D-03
 Coeff-Com: -0.199D-02 0.223D-01 0.737D-01-0.471D+00 0.138D+01
 Coeff-En:   0.000D+00 0.000D+00 0.000D+00 0.000D+00 0.100D+01
 Coeff:     -0.198D-02 0.223D-01 0.736D-01-0.470D+00 0.138D+01
 Gap=     0.698 Goal=   None    Shift=    0.000
 RMSDP=6.45D-05 MaxDP=3.31D-04 DE=-2.46D-05 OVMax= 3.57D-04

 Cycle   6  Pass 1  IDiag  1:
 E= -75.9816952417451     Delta-E=       -0.000000343036 Rises=F Damp=F
 DIIS: error= 1.29D-05 at cycle   6 NSaved=   6.
 NSaved= 6 IEnMin= 6 EnMin= -75.9816952417451     IErMin= 6 ErrMin= 1.29D-05
 ErrMax= 1.29D-05  0.00D+00 EMaxC= 1.00D-01 BMatC= 2.34D-09 BMatP= 1.38D-07
 IDIUse=1 WtCom= 1.00D+00 WtEn= 0.00D+00
 Coeff-Com:  0.608D-03-0.736D-02-0.236D-01 0.165D+00-0.542D+00 0.141D+01
 Coeff:      0.608D-03-0.736D-02-0.236D-01 0.165D+00-0.542D+00 0.141D+01
 Gap=     0.698 Goal=   None    Shift=    0.000
 RMSDP=8.23D-06 MaxDP=3.87D-05 DE=-3.43D-07 OVMax= 4.81D-05

 Cycle   7  Pass 1  IDiag  1:
 E= -75.9816952480969     Delta-E=       -0.000000006352 Rises=F Damp=F
 DIIS: error= 3.52D-06 at cycle   7 NSaved=   7.
 NSaved= 7 IEnMin= 7 EnMin= -75.9816952480969     IErMin= 7 ErrMin= 3.52D-06
 ErrMax= 3.52D-06  0.00D+00 EMaxC= 1.00D-01 BMatC= 1.44D-10 BMatP= 2.34D-09
 IDIUse=1 WtCom= 1.00D+00 WtEn= 0.00D+00
 Coeff-Com: -0.677D-04 0.105D-02 0.311D-02-0.279D-01 0.109D+00-0.480D+00
 Coeff-Com:  0.139D+01
 Coeff:     -0.677D-04 0.105D-02 0.311D-02-0.279D-01 0.109D+00-0.480D+00
 Coeff:      0.139D+01
 Gap=     0.698 Goal=   None    Shift=    0.000
 RMSDP=1.86D-06 MaxDP=9.00D-06 DE=-6.35D-09 OVMax= 1.24D-05

 Cycle   8  Pass 1  IDiag  1:
 E= -75.9816952484658     Delta-E=       -0.000000000369 Rises=F Damp=F
 DIIS: error= 3.87D-07 at cycle   8 NSaved=   8.
 NSaved= 8 IEnMin= 8 EnMin= -75.9816952484658     IErMin= 8 ErrMin= 3.87D-07
 ErrMax= 3.87D-07  0.00D+00 EMaxC= 1.00D-01 BMatC= 2.21D-12 BMatP= 1.44D-10
 IDIUse=1 WtCom= 1.00D+00 WtEn= 0.00D+00
 Coeff-Com: -0.920D-05 0.346D-04 0.199D-03 0.523D-03-0.640D-02 0.638D-01
 Coeff-Com: -0.318D+00 0.126D+01
 Coeff:     -0.920D-05 0.346D-04 0.199D-03 0.523D-03-0.640D-02 0.638D-01
 Coeff:     -0.318D+00 0.126D+01
 Gap=     0.698 Goal=   None    Shift=    0.000
 RMSDP=2.56D-07 MaxDP=9.11D-07 DE=-3.69D-10 OVMax= 1.63D-06

 Cycle   9  Pass 1  IDiag  1:
 E= -75.9816952484716     Delta-E=       -0.000000000006 Rises=F Damp=F
 DIIS: error= 6.12D-08 at cycle   9 NSaved=   9.
 NSaved= 9 IEnMin= 9 EnMin= -75.9816952484716     IErMin= 9 ErrMin= 6.12D-08
 ErrMax= 6.12D-08  0.00D+00 EMaxC= 1.00D-01 BMatC= 3.82D-14 BMatP= 2.21D-12
 IDIUse=1 WtCom= 1.00D+00 WtEn= 0.00D+00
 Coeff-Com:  0.147D-05 0.694D-06-0.176D-04-0.329D-03 0.208D-02-0.156D-01
 Coeff-Com:  0.739D-01-0.367D+00 0.131D+01
 Coeff:      0.147D-05 0.694D-06-0.176D-04-0.329D-03 0.208D-02-0.156D-01
 Coeff:      0.739D-01-0.367D+00 0.131D+01
 Gap=     0.698 Goal=   None    Shift=    0.000
 RMSDP=4.22D-08 MaxDP=1.45D-07 DE=-5.84D-12 OVMax= 2.75D-07

 Cycle  10  Pass 1  IDiag  1:
 E= -75.9816952484718     Delta-E=        0.000000000000 Rises=F Damp=F
 DIIS: error= 3.62D-09 at cycle  10 NSaved=  10.
 NSaved=10 IEnMin=10 EnMin= -75.9816952484718     IErMin=10 ErrMin= 3.62D-09
 ErrMax= 3.62D-09  0.00D+00 EMaxC= 1.00D-01 BMatC= 2.98D-16 BMatP= 3.82D-14
 IDIUse=1 WtCom= 1.00D+00 WtEn= 0.00D+00
 Coeff-Com: -0.256D-06 0.501D-06 0.440D-05 0.318D-04-0.238D-03 0.193D-02
 Coeff-Com: -0.101D-01 0.558D-01-0.256D+00 0.121D+01
 Coeff:     -0.256D-06 0.501D-06 0.440D-05 0.318D-04-0.238D-03 0.193D-02
 Coeff:     -0.101D-01 0.558D-01-0.256D+00 0.121D+01
 Gap=     0.698 Goal=   None    Shift=    0.000
 RMSDP=3.85D-09 MaxDP=1.62D-08 DE=-1.42D-13 OVMax= 2.35D-08

 SCF Done:  E(RHF) =  -75.9816952485     A.U. after   10 cycles
            NFock= 10  Conv=0.38D-08     -V/T= 2.0011
 KE= 7.590126389332D+01 PE=-1.984587951381D+02 EE= 3.761468484498D+01
 Leave Link  502 at Tue Mar 17 13:43:21 2020, MaxMem=    33554432 cpu:         0.1
 (Enter /usr/local/gaussian09d01/g09/l601.exe)
 Copying SCF densities to generalized density rwf, IOpCl= 0 IROHF=0.

 **********************************************************************

            Population analysis using the SCF density.

 **********************************************************************

 Orbital symmetries:
       Occupied  (A') (A') (A') (A') (A")
       Virtual   (A') (A') (A') (A') (A") (A') (A') (A')
 The electronic state is 1-A'.
 Alpha  occ. eigenvalues --  -20.56602  -1.34433  -0.69497  -0.55826  -0.50050
 Alpha virt. eigenvalues --    0.19726   0.29263   1.04211   1.15812   1.16413
 Alpha virt. eigenvalues --    1.21953   1.37230   1.69748
          Condensed to atoms (all electrons):
               1          2          3
     1  O    8.286444   0.253474   0.253031
     2  H    0.253474   0.380483  -0.030560
     3  H    0.253031  -0.030560   0.381185
 Mulliken charges:
               1
     1  O   -0.792949
     2  H    0.396604
     3  H    0.396345
 Sum of Mulliken charges =   0.00000
 Mulliken charges with hydrogens summed into heavy atoms:
               1
     1  O    0.000000
 Electronic spatial extent (au):  <R**2>=             19.4566
 Charge=              0.0000 electrons
 Dipole moment (field-independent basis, Debye):
    X=              0.0467    Y=             -2.6516    Z=              0.0000  Tot=              2.6521
 Quadrupole moment (field-independent basis, Debye-Ang):
   XX=             -4.2066   YY=             -6.1300   ZZ=             -7.2617
   XY=              0.0901   XZ=              0.0000   YZ=              0.0000
 Traceless Quadrupole moment (field-independent basis, Debye-Ang):
   XX=              1.6596   YY=             -0.2639   ZZ=             -1.3956
   XY=              0.0901   XZ=              0.0000   YZ=              0.0000
 Octapole moment (field-independent basis, Debye-Ang**2):
  XXX=              0.0684  YYY=             -1.5978  ZZZ=              0.0000  XYY=             -0.0533
  XXY=             -1.3750  XXZ=              0.0000  XZZ=              0.0306  YZZ=             -0.4284
  YYZ=              0.0000  XYZ=              0.0000
 Hexadecapole moment (field-independent basis, Debye-Ang**3):
 XXXX=             -5.8550 YYYY=             -6.3667 ZZZZ=             -5.2403 XXXY=             -0.0155
 XXXZ=              0.0000 YYYX=             -0.0063 YYYZ=              0.0000 ZZZX=              0.0000
 ZZZY=              0.0000 XXYY=             -1.6869 XXZZ=             -2.1023 YYZZ=             -1.9898
 XXYZ=              0.0000 YYXZ=              0.0000 ZZXY=             -0.0260
 N-N= 8.961151151316D+00 E-N=-1.984587951544D+02  KE= 7.590126389332D+01
 Symmetry A'   KE= 7.132420074790D+01
 Symmetry A"   KE= 4.577063145415D+00
 No NMR shielding tensors so no spin-rotation constants.
 Leave Link  601 at Tue Mar 17 13:43:21 2020, MaxMem=    33554432 cpu:         0.1
 (Enter /usr/local/gaussian09d01/g09/l9999.exe)
 1\1\GINC-KARURA\SP\RHF\6-31G\H2O1\RTAKE\17-Mar-2020\0\\#p HF/6-31G\\ch
 k calc\\0,1\O,0,0.049680185,-0.026100697,-3.159977228\H,0,0.049680185,
 0.733236303,-2.563934228\H,0,0.049680185,-0.812710295,-2.54252655\\Ver
 sion=ES64L-G09RevD.01\State=1-A'\HF=-75.9816952\RMSD=3.848e-09\Dipole=
 0.,-0.0050579,1.0433872\Quadrupole=-1.0376186,1.2361247,-0.1985061,0.,
 0.,-0.0348024\PG=CS [SG(H2O1)]\\@


 FROM WHENCE IT HAPPENS, THAT THEY WHICH TRUST TO BOOKS, DO AS THEY THAT CAST UP MANY LITTLE SUMMS INTO GREATER,
 WITHOUT CONSIDERING WETHER THOSE LITTLE SUMMES WERE RIGHTLY CAST UP OR NOT...
 AND AT LAST FINDING THE ERROUR VISIBLE, AND NOT MISTRUSTING THEIR FIRST GROUNDS,
 KNOW NOT WHICH WAY TO CLEERE THEMSELVES...
 BUT SPEND TIME IN FLUTTERING OVER THEIR BOOKES....
 AS BIRDS THAT ENTERING BY THE CHIMNEY, AND FINDING THEMSELVES INCLOSED IN A CHAMBER,
 FLUTTER AT THE FALSE LIGHT OF A GLASSE WINDOW,
 FOR WANT OF WIT TO CONSIDER WHICH WAY THEY CAME IN....
           LEVIATHAN
 Job cpu time:       0 days  0 hours  0 minutes  0.4 seconds.
 File lengths (MBytes):  RWF=      5 Int=      0 D2E=      0 Chk=      1 Scr=      1
 Normal termination of Gaussian 09 at Tue Mar 17 13:43:21 2020.
