 Entering Gaussian System, Link 0=g09
 Input=./h2o_o1h3_15.gjf
 Output=./h2o_o1h3_15.log
 Initial command:
 /usr/local/gaussian09d01/g09/l1.exe "/scr/Gau-18128.inp" -scrdir="/scr/"
 Entering Link 1 = /usr/local/gaussian09d01/g09/l1.exe PID=     18129.
  
 Copyright (c) 1988,1990,1992,1993,1995,1998,2003,2009,2013,
            Gaussian, Inc.  All Rights Reserved.
  
 This is part of the Gaussian(R) 09 program.  It is based on
 the Gaussian(R) 03 system (copyright 2003, Gaussian, Inc.),
 the Gaussian(R) 98 system (copyright 1998, Gaussian, Inc.),
 the Gaussian(R) 94 system (copyright 1995, Gaussian, Inc.),
 the Gaussian 92(TM) system (copyright 1992, Gaussian, Inc.),
 the Gaussian 90(TM) system (copyright 1990, Gaussian, Inc.),
 the Gaussian 88(TM) system (copyright 1988, Gaussian, Inc.),
 the Gaussian 86(TM) system (copyright 1986, Carnegie Mellon
 University), and the Gaussian 82(TM) system (copyright 1983,
 Carnegie Mellon University). Gaussian is a federally registered
 trademark of Gaussian, Inc.
  
 This software contains proprietary and confidential information,
 including trade secrets, belonging to Gaussian, Inc.
  
 This software is provided under written license and may be
 used, copied, transmitted, or stored only in accord with that
 written license.
  
 The following legend is applicable only to US Government
 contracts under FAR:
  
                    RESTRICTED RIGHTS LEGEND
  
 Use, reproduction and disclosure by the US Government is
 subject to restrictions as set forth in subparagraphs (a)
 and (c) of the Commercial Computer Software - Restricted
 Rights clause in FAR 52.227-19.
  
 Gaussian, Inc.
 340 Quinnipiac St., Bldg. 40, Wallingford CT 06492
  
  
 ---------------------------------------------------------------
 Warning -- This program may not be used in any manner that
 competes with the business of Gaussian, Inc. or will provide
 assistance to any competitor of Gaussian, Inc.  The licensee
 of this program is prohibited from giving any competitor of
 Gaussian, Inc. access to this program.  By using this program,
 the user acknowledges that Gaussian, Inc. is engaged in the
 business of creating and licensing software in the field of
 computational chemistry and represents and warrants to the
 licensee that it is not a competitor of Gaussian, Inc. and that
 it will not use this program in any manner prohibited above.
 ---------------------------------------------------------------
  

 Cite this work as:
 Gaussian 09, Revision D.01,
 M. J. Frisch, G. W. Trucks, H. B. Schlegel, G. E. Scuseria, 
 M. A. Robb, J. R. Cheeseman, G. Scalmani, V. Barone, B. Mennucci, 
 G. A. Petersson, H. Nakatsuji, M. Caricato, X. Li, H. P. Hratchian, 
 A. F. Izmaylov, J. Bloino, G. Zheng, J. L. Sonnenberg, M. Hada, 
 M. Ehara, K. Toyota, R. Fukuda, J. Hasegawa, M. Ishida, T. Nakajima, 
 Y. Honda, O. Kitao, H. Nakai, T. Vreven, J. A. Montgomery, Jr., 
 J. E. Peralta, F. Ogliaro, M. Bearpark, J. J. Heyd, E. Brothers, 
 K. N. Kudin, V. N. Staroverov, T. Keith, R. Kobayashi, J. Normand, 
 K. Raghavachari, A. Rendell, J. C. Burant, S. S. Iyengar, J. Tomasi, 
 M. Cossi, N. Rega, J. M. Millam, M. Klene, J. E. Knox, J. B. Cross, 
 V. Bakken, C. Adamo, J. Jaramillo, R. Gomperts, R. E. Stratmann, 
 O. Yazyev, A. J. Austin, R. Cammi, C. Pomelli, J. W. Ochterski, 
 R. L. Martin, K. Morokuma, V. G. Zakrzewski, G. A. Voth, 
 P. Salvador, J. J. Dannenberg, S. Dapprich, A. D. Daniels, 
 O. Farkas, J. B. Foresman, J. V. Ortiz, J. Cioslowski, 
 and D. J. Fox, Gaussian, Inc., Wallingford CT, 2013.
 
 ******************************************
 Gaussian 09:  ES64L-G09RevD.01 24-Apr-2013
                17-Mar-2020 
 ******************************************
 -----------
 #p HF/6-31G
 -----------
 1/38=1/1;
 2/12=2,17=6,18=5,40=1/2;
 3/5=1,6=6,11=9,16=1,25=1,30=1/1,2,3;
 4//1;
 5/5=2,38=5/2;
 6/7=2,8=2,9=2,10=2,28=1/1;
 99/5=1,9=1/99;
 Leave Link    1 at Tue Mar 17 13:43:23 2020, MaxMem=           0 cpu:         0.0
 (Enter /usr/local/gaussian09d01/g09/l101.exe)
 --------
 chk calc
 --------
 Symbolic Z-matrix:
 Charge =  0 Multiplicity = 1
 O                     0.04968   0.17055  -3.31434 
 H                     0.04968   0.92989  -2.7183 
 H                     0.04968  -1.00936  -2.38816 
 
 NAtoms=      3 NQM=        3 NQMF=       0 NMMI=      0 NMMIF=      0
                NMic=       0 NMicF=      0.
                    Isotopes and Nuclear Properties:
 (Nuclear quadrupole moments (NQMom) in fm**2, nuclear magnetic moments (NMagM)
  in nuclear magnetons)

  Atom         1           2           3
 IAtWgt=          16           1           1
 AtmWgt=  15.9949146   1.0078250   1.0078250
 NucSpn=           0           1           1
 AtZEff=   0.0000000   0.0000000   0.0000000
 NQMom=    0.0000000   0.0000000   0.0000000
 NMagM=    0.0000000   2.7928460   2.7928460
 AtZNuc=   8.0000000   1.0000000   1.0000000
 Leave Link  101 at Tue Mar 17 13:43:23 2020, MaxMem=    33554432 cpu:         0.0
 (Enter /usr/local/gaussian09d01/g09/l202.exe)
                          Input orientation:                          
 ---------------------------------------------------------------------
 Center     Atomic      Atomic             Coordinates (Angstroms)
 Number     Number       Type             X           Y           Z
 ---------------------------------------------------------------------
      1          8           0        0.049680    0.170552   -3.314340
      2          1           0        0.049680    0.929889   -2.718297
      3          1           0        0.049680   -1.009363   -2.388164
 ---------------------------------------------------------------------
                    Distance matrix (angstroms):
                    1          2          3
     1  O    0.000000
     2  H    0.965329   0.000000
     3  H    1.500000   1.967151   0.000000
 Stoichiometry    H2O
 Framework group  CS[SG(H2O)]
 Deg. of freedom     3
 Full point group                 CS      NOp   2
 Largest Abelian subgroup         CS      NOp   2
 Largest concise Abelian subgroup C1      NOp   1
                         Standard orientation:                         
 ---------------------------------------------------------------------
 Center     Atomic      Atomic             Coordinates (Angstroms)
 Number     Number       Type             X           Y           Z
 ---------------------------------------------------------------------
      1          8           0        0.000000    0.157925    0.000000
      2          1           0        0.890649   -0.214370    0.000000
      3          1           0       -0.890649   -1.049031    0.000000
 ---------------------------------------------------------------------
 Rotational constants (GHZ):    647.1292284    221.1578284    164.8276267
 Leave Link  202 at Tue Mar 17 13:43:23 2020, MaxMem=    33554432 cpu:         0.0
 (Enter /usr/local/gaussian09d01/g09/l301.exe)
 Standard basis: 6-31G (6D, 7F)
 Ernie: Thresh=  0.10000D-02 Tol=  0.10000D-05 Strict=F.
 There are    11 symmetry adapted cartesian basis functions of A'  symmetry.
 There are     2 symmetry adapted cartesian basis functions of A"  symmetry.
 There are    11 symmetry adapted basis functions of A'  symmetry.
 There are     2 symmetry adapted basis functions of A"  symmetry.
    13 basis functions,    30 primitive gaussians,    13 cartesian basis functions
     5 alpha electrons        5 beta electrons
       nuclear repulsion energy         7.4767518265 Hartrees.
 IExCor=    0 DFT=F Ex=HF Corr=None ExCW=0 ScaHFX=  1.000000
 ScaDFX=  1.000000  1.000000  1.000000  1.000000 ScalE2=  1.000000  1.000000
 IRadAn=      0 IRanWt=     -1 IRanGd=            0 ICorTp=0 IEmpDi=  4
 NAtoms=    3 NActive=    3 NUniq=    3 SFac= 1.00D+00 NAtFMM=   60 NAOKFM=F Big=F
 Integral buffers will be    131072 words long.
 Raffenetti 1 integral format.
 Two-electron integral symmetry is turned on.
 Leave Link  301 at Tue Mar 17 13:43:23 2020, MaxMem=    33554432 cpu:         0.0
 (Enter /usr/local/gaussian09d01/g09/l302.exe)
 NPDir=0 NMtPBC=     1 NCelOv=     1 NCel=       1 NClECP=     1 NCelD=      1
         NCelK=      1 NCelE2=     1 NClLst=     1 CellRange=     0.0.
 One-electron integrals computed using PRISM.
 NBasis=    13 RedAO= T EigKep=  1.18D-01  NBF=    11     2
 NBsUse=    13 1.00D-06 EigRej= -1.00D+00 NBFU=    11     2
 Leave Link  302 at Tue Mar 17 13:43:23 2020, MaxMem=    33554432 cpu:         0.0
 (Enter /usr/local/gaussian09d01/g09/l303.exe)
 DipDrv:  MaxL=1.
 Leave Link  303 at Tue Mar 17 13:43:23 2020, MaxMem=    33554432 cpu:         0.0
 (Enter /usr/local/gaussian09d01/g09/l401.exe)
 ExpMin= 1.61D-01 ExpMax= 5.48D+03 ExpMxC= 8.25D+02 IAcc=1 IRadAn=         1 AccDes= 0.00D+00
 Harris functional with IExCor=  205 and IRadAn=       1 diagonalized for initial guess.
 HarFok:  IExCor=  205 AccDes= 0.00D+00 IRadAn=         1 IDoV= 1 UseB2=F ITyADJ=14
 ICtDFT=  3500011 ScaDFX=  1.000000  1.000000  1.000000  1.000000
 FoFCou: FMM=F IPFlag=           0 FMFlag=      100000 FMFlg1=           0
         NFxFlg=           0 DoJE=T BraDBF=F KetDBF=T FulRan=T
         wScrn=  0.000000 ICntrl=     500 IOpCl=  0 I1Cent=   200000004 NGrid=           0
         NMat0=    1 NMatS0=      1 NMatT0=    0 NMatD0=    1 NMtDS0=    0 NMtDT0=    0
 Petite list used in FoFCou.
 Harris En= -76.0045099691883    
 JPrj=0 DoOrth=F DoCkMO=F.
 Initial guess orbital symmetries:
       Occupied  (A') (A') (A') (A') (A")
       Virtual   (A') (A') (A') (A") (A') (A') (A') (A')
 The electronic state of the initial guess is 1-A'.
 Leave Link  401 at Tue Mar 17 13:43:23 2020, MaxMem=    33554432 cpu:         0.1
 (Enter /usr/local/gaussian09d01/g09/l502.exe)
 Closed shell SCF:
 Using DIIS extrapolation, IDIIS=  1040.
 Integral symmetry usage will be decided dynamically.
 Keep R1 ints in memory in symmetry-blocked form, NReq=829359.
 IVT=       20162 IEndB=       20162 NGot=    33554432 MDV=    33531252
 LenX=    33531252 LenY=    33530370
 Requested convergence on RMS density matrix=1.00D-08 within 128 cycles.
 Requested convergence on MAX density matrix=1.00D-06.
 Requested convergence on             energy=1.00D-06.
 No special actions if energy rises.
 FoFCou: FMM=F IPFlag=           0 FMFlag=           0 FMFlg1=           0
         NFxFlg=           0 DoJE=F BraDBF=F KetDBF=F FulRan=T
         wScrn=  0.000000 ICntrl=     600 IOpCl=  0 I1Cent=           0 NGrid=           0
         NMat0=    1 NMatS0=     91 NMatT0=    0 NMatD0=    1 NMtDS0=    0 NMtDT0=    0
 Petite list used in FoFCou.

 Cycle   1  Pass 1  IDiag  1:
 E= -75.7534918087794    
 DIIS: error= 7.91D-02 at cycle   1 NSaved=   1.
 NSaved= 1 IEnMin= 1 EnMin= -75.7534918087794     IErMin= 1 ErrMin= 7.91D-02
 ErrMax= 7.91D-02  0.00D+00 EMaxC= 1.00D-01 BMatC= 1.32D-01 BMatP= 1.32D-01
 IDIUse=3 WtCom= 2.09D-01 WtEn= 7.91D-01
 Coeff-Com:  0.100D+01
 Coeff-En:   0.100D+01
 Coeff:      0.100D+01
 Gap=     0.344 Goal=   None    Shift=    0.000
 GapD=    0.344 DampG=1.000 DampE=0.500 DampFc=0.5000 IDamp=-1.
 Damping current iteration by 5.00D-01
 RMSDP=3.12D-02 MaxDP=1.70D-01              OVMax= 2.17D-01

 Cycle   2  Pass 1  IDiag  1:
 E= -75.8148835379523     Delta-E=       -0.061391729173 Rises=F Damp=T
 DIIS: error= 1.87D-02 at cycle   2 NSaved=   2.
 NSaved= 2 IEnMin= 2 EnMin= -75.8148835379523     IErMin= 2 ErrMin= 1.87D-02
 ErrMax= 1.87D-02  0.00D+00 EMaxC= 1.00D-01 BMatC= 8.48D-03 BMatP= 1.32D-01
 IDIUse=3 WtCom= 8.13D-01 WtEn= 1.87D-01
 Coeff-Com: -0.997D-01 0.110D+01
 Coeff-En:   0.000D+00 0.100D+01
 Coeff:     -0.811D-01 0.108D+01
 Gap=     0.531 Goal=   None    Shift=    0.000
 RMSDP=5.38D-03 MaxDP=2.87D-02 DE=-6.14D-02 OVMax= 8.02D-02

 Cycle   3  Pass 1  IDiag  1:
 E= -75.8716883315317     Delta-E=       -0.056804793579 Rises=F Damp=F
 DIIS: error= 7.04D-03 at cycle   3 NSaved=   3.
 NSaved= 3 IEnMin= 3 EnMin= -75.8716883315317     IErMin= 3 ErrMin= 7.04D-03
 ErrMax= 7.04D-03  0.00D+00 EMaxC= 1.00D-01 BMatC= 5.36D-04 BMatP= 8.48D-03
 IDIUse=3 WtCom= 9.30D-01 WtEn= 7.04D-02
 Coeff-Com:  0.583D-01-0.225D+00 0.117D+01
 Coeff-En:   0.000D+00 0.000D+00 0.100D+01
 Coeff:      0.542D-01-0.209D+00 0.116D+01
 Gap=     0.565 Goal=   None    Shift=    0.000
 RMSDP=1.93D-03 MaxDP=9.59D-03 DE=-5.68D-02 OVMax= 1.33D-02

 Cycle   4  Pass 1  IDiag  1:
 E= -75.8725454188947     Delta-E=       -0.000857087363 Rises=F Damp=F
 DIIS: error= 2.65D-03 at cycle   4 NSaved=   4.
 NSaved= 4 IEnMin= 4 EnMin= -75.8725454188947     IErMin= 4 ErrMin= 2.65D-03
 ErrMax= 2.65D-03  0.00D+00 EMaxC= 1.00D-01 BMatC= 6.16D-05 BMatP= 5.36D-04
 IDIUse=3 WtCom= 9.74D-01 WtEn= 2.65D-02
 Coeff-Com: -0.244D-02 0.374D-01-0.564D+00 0.153D+01
 Coeff-En:   0.000D+00 0.000D+00 0.000D+00 0.100D+01
 Coeff:     -0.237D-02 0.364D-01-0.549D+00 0.151D+01
 Gap=     0.570 Goal=   None    Shift=    0.000
 RMSDP=9.56D-04 MaxDP=5.16D-03 DE=-8.57D-04 OVMax= 6.80D-03

 Cycle   5  Pass 1  IDiag  1:
 E= -75.8726668684846     Delta-E=       -0.000121449590 Rises=F Damp=F
 DIIS: error= 1.61D-04 at cycle   5 NSaved=   5.
 NSaved= 5 IEnMin= 5 EnMin= -75.8726668684846     IErMin= 5 ErrMin= 1.61D-04
 ErrMax= 1.61D-04  0.00D+00 EMaxC= 1.00D-01 BMatC= 6.33D-07 BMatP= 6.16D-05
 IDIUse=3 WtCom= 9.98D-01 WtEn= 1.61D-03
 Coeff-Com: -0.182D-05-0.955D-02 0.178D+00-0.556D+00 0.139D+01
 Coeff-En:   0.000D+00 0.000D+00 0.000D+00 0.000D+00 0.100D+01
 Coeff:     -0.182D-05-0.953D-02 0.177D+00-0.555D+00 0.139D+01
 Gap=     0.570 Goal=   None    Shift=    0.000
 RMSDP=1.38D-04 MaxDP=5.81D-04 DE=-1.21D-04 OVMax= 1.03D-03

 Cycle   6  Pass 1  IDiag  1:
 E= -75.8726689819240     Delta-E=       -0.000002113439 Rises=F Damp=F
 DIIS: error= 5.10D-05 at cycle   6 NSaved=   6.
 NSaved= 6 IEnMin= 6 EnMin= -75.8726689819240     IErMin= 6 ErrMin= 5.10D-05
 ErrMax= 5.10D-05  0.00D+00 EMaxC= 1.00D-01 BMatC= 3.79D-08 BMatP= 6.33D-07
 IDIUse=1 WtCom= 1.00D+00 WtEn= 0.00D+00
 Coeff-Com:  0.223D-03 0.402D-02-0.819D-01 0.265D+00-0.793D+00 0.161D+01
 Coeff:      0.223D-03 0.402D-02-0.819D-01 0.265D+00-0.793D+00 0.161D+01
 Gap=     0.570 Goal=   None    Shift=    0.000
 RMSDP=3.68D-05 MaxDP=1.72D-04 DE=-2.11D-06 OVMax= 3.18D-04

 Cycle   7  Pass 1  IDiag  1:
 E= -75.8726691554690     Delta-E=       -0.000000173545 Rises=F Damp=F
 DIIS: error= 1.48D-05 at cycle   7 NSaved=   7.
 NSaved= 7 IEnMin= 7 EnMin= -75.8726691554690     IErMin= 7 ErrMin= 1.48D-05
 ErrMax= 1.48D-05  0.00D+00 EMaxC= 1.00D-01 BMatC= 2.91D-09 BMatP= 3.79D-08
 IDIUse=1 WtCom= 1.00D+00 WtEn= 0.00D+00
 Coeff-Com: -0.544D-04-0.841D-03 0.156D-01-0.513D-01 0.191D+00-0.663D+00
 Coeff-Com:  0.151D+01
 Coeff:     -0.544D-04-0.841D-03 0.156D-01-0.513D-01 0.191D+00-0.663D+00
 Coeff:      0.151D+01
 Gap=     0.570 Goal=   None    Shift=    0.000
 RMSDP=1.17D-05 MaxDP=5.20D-05 DE=-1.74D-07 OVMax= 1.12D-04

 Cycle   8  Pass 1  IDiag  1:
 E= -75.8726691704611     Delta-E=       -0.000000014992 Rises=F Damp=F
 DIIS: error= 2.55D-06 at cycle   8 NSaved=   8.
 NSaved= 8 IEnMin= 8 EnMin= -75.8726691704611     IErMin= 8 ErrMin= 2.55D-06
 ErrMax= 2.55D-06  0.00D+00 EMaxC= 1.00D-01 BMatC= 1.35D-10 BMatP= 2.91D-09
 IDIUse=1 WtCom= 1.00D+00 WtEn= 0.00D+00
 Coeff-Com:  0.304D-04 0.493D-04-0.107D-02 0.403D-02-0.291D-01 0.175D+00
 Coeff-Com: -0.624D+00 0.148D+01
 Coeff:      0.304D-04 0.493D-04-0.107D-02 0.403D-02-0.291D-01 0.175D+00
 Coeff:     -0.624D+00 0.148D+01
 Gap=     0.570 Goal=   None    Shift=    0.000
 RMSDP=2.72D-06 MaxDP=7.69D-06 DE=-1.50D-08 OVMax= 2.26D-05

 Cycle   9  Pass 1  IDiag  1:
 E= -75.8726691710473     Delta-E=       -0.000000000586 Rises=F Damp=F
 DIIS: error= 5.45D-07 at cycle   9 NSaved=   9.
 NSaved= 9 IEnMin= 9 EnMin= -75.8726691710473     IErMin= 9 ErrMin= 5.45D-07
 ErrMax= 5.45D-07  0.00D+00 EMaxC= 1.00D-01 BMatC= 3.13D-12 BMatP= 1.35D-10
 IDIUse=1 WtCom= 1.00D+00 WtEn= 0.00D+00
 Coeff-Com: -0.979D-05 0.950D-05-0.165D-03 0.290D-03 0.523D-02-0.509D-01
 Coeff-Com:  0.209D+00-0.610D+00 0.145D+01
 Coeff:     -0.979D-05 0.950D-05-0.165D-03 0.290D-03 0.523D-02-0.509D-01
 Coeff:      0.209D+00-0.610D+00 0.145D+01
 Gap=     0.570 Goal=   None    Shift=    0.000
 RMSDP=3.57D-07 MaxDP=1.27D-06 DE=-5.86D-10 OVMax= 2.07D-06

 Cycle  10  Pass 1  IDiag  1:
 E= -75.8726691710563     Delta-E=       -0.000000000009 Rises=F Damp=F
 DIIS: error= 5.87D-08 at cycle  10 NSaved=  10.
 NSaved=10 IEnMin=10 EnMin= -75.8726691710563     IErMin=10 ErrMin= 5.87D-08
 ErrMax= 5.87D-08  0.00D+00 EMaxC= 1.00D-01 BMatC= 5.64D-14 BMatP= 3.13D-12
 IDIUse=1 WtCom= 1.00D+00 WtEn= 0.00D+00
 Coeff-Com:  0.125D-05-0.257D-05 0.671D-04-0.163D-03-0.657D-03 0.913D-02
 Coeff-Com: -0.387D-01 0.123D+00-0.346D+00 0.125D+01
 Coeff:      0.125D-05-0.257D-05 0.671D-04-0.163D-03-0.657D-03 0.913D-02
 Coeff:     -0.387D-01 0.123D+00-0.346D+00 0.125D+01
 Gap=     0.570 Goal=   None    Shift=    0.000
 RMSDP=3.00D-08 MaxDP=1.04D-07 DE=-9.07D-12 OVMax= 1.91D-07

 Cycle  11  Pass 1  IDiag  1:
 E= -75.8726691710565     Delta-E=        0.000000000000 Rises=F Damp=F
 DIIS: error= 6.39D-09 at cycle  11 NSaved=  11.
 NSaved=11 IEnMin=11 EnMin= -75.8726691710565     IErMin=11 ErrMin= 6.39D-09
 ErrMax= 6.39D-09  0.00D+00 EMaxC= 1.00D-01 BMatC= 4.89D-16 BMatP= 5.64D-14
 IDIUse=1 WtCom= 1.00D+00 WtEn= 0.00D+00
 Coeff-Com: -0.111D-06 0.686D-06-0.171D-04 0.468D-04 0.133D-04-0.109D-02
 Coeff-Com:  0.505D-02-0.174D-01 0.547D-01-0.278D+00 0.124D+01
 Coeff:     -0.111D-06 0.686D-06-0.171D-04 0.468D-04 0.133D-04-0.109D-02
 Coeff:      0.505D-02-0.174D-01 0.547D-01-0.278D+00 0.124D+01
 Gap=     0.570 Goal=   None    Shift=    0.000
 RMSDP=3.35D-09 MaxDP=1.00D-08 DE=-1.71D-13 OVMax= 2.10D-08

 SCF Done:  E(RHF) =  -75.8726691711     A.U. after   11 cycles
            NFock= 11  Conv=0.33D-08     -V/T= 2.0056
 KE= 7.545333856560D+01 PE=-1.951335813937D+02 EE= 3.633082183054D+01
 Leave Link  502 at Tue Mar 17 13:43:23 2020, MaxMem=    33554432 cpu:         0.0
 (Enter /usr/local/gaussian09d01/g09/l601.exe)
 Copying SCF densities to generalized density rwf, IOpCl= 0 IROHF=0.

 **********************************************************************

            Population analysis using the SCF density.

 **********************************************************************

 Orbital symmetries:
       Occupied  (A') (A') (A') (A") (A')
       Virtual   (A') (A') (A') (A') (A") (A') (A') (A')
 The electronic state is 1-A'.
 Alpha  occ. eigenvalues --  -20.60221  -1.29198  -0.62459  -0.49917  -0.49134
 Alpha virt. eigenvalues --    0.07842   0.25433   0.93752   1.12305   1.16277
 Alpha virt. eigenvalues --    1.22941   1.35513   1.60843
          Condensed to atoms (all electrons):
               1          2          3
     1  O    8.242444   0.220418   0.211089
     2  H    0.220418   0.391395  -0.013318
     3  H    0.211089  -0.013318   0.529781
 Mulliken charges:
               1
     1  O   -0.673952
     2  H    0.401505
     3  H    0.272447
 Sum of Mulliken charges =   0.00000
 Mulliken charges with hydrogens summed into heavy atoms:
               1
     1  O    0.000000
 Electronic spatial extent (au):  <R**2>=             23.4468
 Charge=              0.0000 electrons
 Dipole moment (field-independent basis, Debye):
    X=              0.7230    Y=             -2.4907    Z=              0.0000  Tot=              2.5935
 Quadrupole moment (field-independent basis, Debye-Ang):
   XX=             -4.2397   YY=             -5.5233   ZZ=             -7.6885
   XY=              1.2392   XZ=              0.0000   YZ=              0.0000
 Traceless Quadrupole moment (field-independent basis, Debye-Ang):
   XX=              1.5775   YY=              0.2939   ZZ=             -1.8713
   XY=              1.2392   XZ=              0.0000   YZ=              0.0000
 Octapole moment (field-independent basis, Debye-Ang**2):
  XXX=              1.4237  YYY=             -1.8640  ZZZ=              0.0000  XYY=             -1.1405
  XXY=             -1.6268  XXZ=              0.0000  XZZ=              0.4694  YZZ=             -0.0062
  YYZ=              0.0000  XYZ=              0.0000
 Hexadecapole moment (field-independent basis, Debye-Ang**3):
 XXXX=             -8.2901 YYYY=             -9.1603 ZZZZ=             -5.8017 XXXY=             -0.8444
 XXXZ=              0.0000 YYYX=              0.0713 YYYZ=              0.0000 ZZZX=              0.0000
 ZZZY=              0.0000 XXYY=             -1.9237 XXZZ=             -2.7670 YYZZ=             -2.9137
 XXYZ=              0.0000 YYXZ=              0.0000 ZZXY=             -0.6454
 N-N= 7.476751826510D+00 E-N=-1.951335813907D+02  KE= 7.545333856560D+01
 Symmetry A'   KE= 7.077222338495D+01
 Symmetry A"   KE= 4.681115180653D+00
 No NMR shielding tensors so no spin-rotation constants.
 Leave Link  601 at Tue Mar 17 13:43:23 2020, MaxMem=    33554432 cpu:         0.1
 (Enter /usr/local/gaussian09d01/g09/l9999.exe)
 1\1\GINC-KARURA\SP\RHF\6-31G\H2O1\RTAKE\17-Mar-2020\0\\#p HF/6-31G\\ch
 k calc\\0,1\O,0,0.049680185,0.170551703,-3.314339897\H,0,0.049680185,0
 .929888703,-2.718296897\H,0,0.049680185,-1.009362695,-2.388163881\\Ver
 sion=ES64L-G09RevD.01\State=1-A'\HF=-75.8726692\RMSD=3.345e-09\Dipole=
 0.,0.01323,1.0202882\Quadrupole=-1.3912795,1.5781033,-0.1868238,0.,0.,
 -0.5456471\PG=CS [SG(H2O1)]\\@


 REALITY IS FOR PEOPLE WHO CAN'T FACE SCIENCE FICTION.
 Job cpu time:       0 days  0 hours  0 minutes  0.4 seconds.
 File lengths (MBytes):  RWF=      5 Int=      0 D2E=      0 Chk=      1 Scr=      1
 Normal termination of Gaussian 09 at Tue Mar 17 13:43:24 2020.
