 Entering Gaussian System, Link 0=g09
 Input=./h2o_o1h3_17.gjf
 Output=./h2o_o1h3_17.log
 Initial command:
 /usr/local/gaussian09d01/g09/l1.exe "/scr/Gau-18133.inp" -scrdir="/scr/"
 Entering Link 1 = /usr/local/gaussian09d01/g09/l1.exe PID=     18134.
  
 Copyright (c) 1988,1990,1992,1993,1995,1998,2003,2009,2013,
            Gaussian, Inc.  All Rights Reserved.
  
 This is part of the Gaussian(R) 09 program.  It is based on
 the Gaussian(R) 03 system (copyright 2003, Gaussian, Inc.),
 the Gaussian(R) 98 system (copyright 1998, Gaussian, Inc.),
 the Gaussian(R) 94 system (copyright 1995, Gaussian, Inc.),
 the Gaussian 92(TM) system (copyright 1992, Gaussian, Inc.),
 the Gaussian 90(TM) system (copyright 1990, Gaussian, Inc.),
 the Gaussian 88(TM) system (copyright 1988, Gaussian, Inc.),
 the Gaussian 86(TM) system (copyright 1986, Carnegie Mellon
 University), and the Gaussian 82(TM) system (copyright 1983,
 Carnegie Mellon University). Gaussian is a federally registered
 trademark of Gaussian, Inc.
  
 This software contains proprietary and confidential information,
 including trade secrets, belonging to Gaussian, Inc.
  
 This software is provided under written license and may be
 used, copied, transmitted, or stored only in accord with that
 written license.
  
 The following legend is applicable only to US Government
 contracts under FAR:
  
                    RESTRICTED RIGHTS LEGEND
  
 Use, reproduction and disclosure by the US Government is
 subject to restrictions as set forth in subparagraphs (a)
 and (c) of the Commercial Computer Software - Restricted
 Rights clause in FAR 52.227-19.
  
 Gaussian, Inc.
 340 Quinnipiac St., Bldg. 40, Wallingford CT 06492
  
  
 ---------------------------------------------------------------
 Warning -- This program may not be used in any manner that
 competes with the business of Gaussian, Inc. or will provide
 assistance to any competitor of Gaussian, Inc.  The licensee
 of this program is prohibited from giving any competitor of
 Gaussian, Inc. access to this program.  By using this program,
 the user acknowledges that Gaussian, Inc. is engaged in the
 business of creating and licensing software in the field of
 computational chemistry and represents and warrants to the
 licensee that it is not a competitor of Gaussian, Inc. and that
 it will not use this program in any manner prohibited above.
 ---------------------------------------------------------------
  

 Cite this work as:
 Gaussian 09, Revision D.01,
 M. J. Frisch, G. W. Trucks, H. B. Schlegel, G. E. Scuseria, 
 M. A. Robb, J. R. Cheeseman, G. Scalmani, V. Barone, B. Mennucci, 
 G. A. Petersson, H. Nakatsuji, M. Caricato, X. Li, H. P. Hratchian, 
 A. F. Izmaylov, J. Bloino, G. Zheng, J. L. Sonnenberg, M. Hada, 
 M. Ehara, K. Toyota, R. Fukuda, J. Hasegawa, M. Ishida, T. Nakajima, 
 Y. Honda, O. Kitao, H. Nakai, T. Vreven, J. A. Montgomery, Jr., 
 J. E. Peralta, F. Ogliaro, M. Bearpark, J. J. Heyd, E. Brothers, 
 K. N. Kudin, V. N. Staroverov, T. Keith, R. Kobayashi, J. Normand, 
 K. Raghavachari, A. Rendell, J. C. Burant, S. S. Iyengar, J. Tomasi, 
 M. Cossi, N. Rega, J. M. Millam, M. Klene, J. E. Knox, J. B. Cross, 
 V. Bakken, C. Adamo, J. Jaramillo, R. Gomperts, R. E. Stratmann, 
 O. Yazyev, A. J. Austin, R. Cammi, C. Pomelli, J. W. Ochterski, 
 R. L. Martin, K. Morokuma, V. G. Zakrzewski, G. A. Voth, 
 P. Salvador, J. J. Dannenberg, S. Dapprich, A. D. Daniels, 
 O. Farkas, J. B. Foresman, J. V. Ortiz, J. Cioslowski, 
 and D. J. Fox, Gaussian, Inc., Wallingford CT, 2013.
 
 ******************************************
 Gaussian 09:  ES64L-G09RevD.01 24-Apr-2013
                17-Mar-2020 
 ******************************************
 -----------
 #p HF/6-31G
 -----------
 1/38=1/1;
 2/12=2,17=6,18=5,40=1/2;
 3/5=1,6=6,11=9,16=1,25=1,30=1/1,2,3;
 4//1;
 5/5=2,38=5/2;
 6/7=2,8=2,9=2,10=2,28=1/1;
 99/5=1,9=1/99;
 Leave Link    1 at Tue Mar 17 13:43:24 2020, MaxMem=           0 cpu:         0.0
 (Enter /usr/local/gaussian09d01/g09/l101.exe)
 --------
 chk calc
 --------
 Symbolic Z-matrix:
 Charge =  0 Multiplicity = 1
 O                     0.04968   0.24921  -3.37608 
 H                     0.04968   1.00855  -2.78004 
 H                     0.04968  -1.08802  -2.32642 
 
 NAtoms=      3 NQM=        3 NQMF=       0 NMMI=      0 NMMIF=      0
                NMic=       0 NMicF=      0.
                    Isotopes and Nuclear Properties:
 (Nuclear quadrupole moments (NQMom) in fm**2, nuclear magnetic moments (NMagM)
  in nuclear magnetons)

  Atom         1           2           3
 IAtWgt=          16           1           1
 AtmWgt=  15.9949146   1.0078250   1.0078250
 NucSpn=           0           1           1
 AtZEff=   0.0000000   0.0000000   0.0000000
 NQMom=    0.0000000   0.0000000   0.0000000
 NMagM=    0.0000000   2.7928460   2.7928460
 AtZNuc=   8.0000000   1.0000000   1.0000000
 Leave Link  101 at Tue Mar 17 13:43:24 2020, MaxMem=    33554432 cpu:         0.0
 (Enter /usr/local/gaussian09d01/g09/l202.exe)
                          Input orientation:                          
 ---------------------------------------------------------------------
 Center     Atomic      Atomic             Coordinates (Angstroms)
 Number     Number       Type             X           Y           Z
 ---------------------------------------------------------------------
      1          8           0        0.049680    0.249213   -3.376085
      2          1           0        0.049680    1.008550   -2.780042
      3          1           0        0.049680   -1.088024   -2.326419
 ---------------------------------------------------------------------
                    Distance matrix (angstroms):
                    1          2          3
     1  O    0.000000
     2  H    0.965329   0.000000
     3  H    1.700000   2.145086   0.000000
 Stoichiometry    H2O
 Framework group  CS[SG(H2O)]
 Deg. of freedom     3
 Full point group                 CS      NOp   2
 Largest Abelian subgroup         CS      NOp   2
 Largest concise Abelian subgroup C1      NOp   1
                         Standard orientation:                         
 ---------------------------------------------------------------------
 Center     Atomic      Atomic             Coordinates (Angstroms)
 Number     Number       Type             X           Y           Z
 ---------------------------------------------------------------------
      1          8           0        0.000000    0.174423    0.000000
      2          1           0        0.913930   -0.136370    0.000000
      3          1           0       -0.913930   -1.259011    0.000000
 ---------------------------------------------------------------------
 Rotational constants (GHZ):    636.2741393    175.1191883    137.3240413
 Leave Link  202 at Tue Mar 17 13:43:24 2020, MaxMem=    33554432 cpu:         0.0
 (Enter /usr/local/gaussian09d01/g09/l301.exe)
 Standard basis: 6-31G (6D, 7F)
 Ernie: Thresh=  0.10000D-02 Tol=  0.10000D-05 Strict=F.
 There are    11 symmetry adapted cartesian basis functions of A'  symmetry.
 There are     2 symmetry adapted cartesian basis functions of A"  symmetry.
 There are    11 symmetry adapted basis functions of A'  symmetry.
 There are     2 symmetry adapted basis functions of A"  symmetry.
    13 basis functions,    30 primitive gaussians,    13 cartesian basis functions
     5 alpha electrons        5 beta electrons
       nuclear repulsion energy         7.1224049635 Hartrees.
 IExCor=    0 DFT=F Ex=HF Corr=None ExCW=0 ScaHFX=  1.000000
 ScaDFX=  1.000000  1.000000  1.000000  1.000000 ScalE2=  1.000000  1.000000
 IRadAn=      0 IRanWt=     -1 IRanGd=            0 ICorTp=0 IEmpDi=  4
 NAtoms=    3 NActive=    3 NUniq=    3 SFac= 1.00D+00 NAtFMM=   60 NAOKFM=F Big=F
 Integral buffers will be    131072 words long.
 Raffenetti 1 integral format.
 Two-electron integral symmetry is turned on.
 Leave Link  301 at Tue Mar 17 13:43:24 2020, MaxMem=    33554432 cpu:         0.0
 (Enter /usr/local/gaussian09d01/g09/l302.exe)
 NPDir=0 NMtPBC=     1 NCelOv=     1 NCel=       1 NClECP=     1 NCelD=      1
         NCelK=      1 NCelE2=     1 NClLst=     1 CellRange=     0.0.
 One-electron integrals computed using PRISM.
 NBasis=    13 RedAO= T EigKep=  1.19D-01  NBF=    11     2
 NBsUse=    13 1.00D-06 EigRej= -1.00D+00 NBFU=    11     2
 Leave Link  302 at Tue Mar 17 13:43:24 2020, MaxMem=    33554432 cpu:         0.1
 (Enter /usr/local/gaussian09d01/g09/l303.exe)
 DipDrv:  MaxL=1.
 Leave Link  303 at Tue Mar 17 13:43:24 2020, MaxMem=    33554432 cpu:         0.0
 (Enter /usr/local/gaussian09d01/g09/l401.exe)
 ExpMin= 1.61D-01 ExpMax= 5.48D+03 ExpMxC= 8.25D+02 IAcc=1 IRadAn=         1 AccDes= 0.00D+00
 Harris functional with IExCor=  205 and IRadAn=       1 diagonalized for initial guess.
 HarFok:  IExCor=  205 AccDes= 0.00D+00 IRadAn=         1 IDoV= 1 UseB2=F ITyADJ=14
 ICtDFT=  3500011 ScaDFX=  1.000000  1.000000  1.000000  1.000000
 FoFCou: FMM=F IPFlag=           0 FMFlag=      100000 FMFlg1=           0
         NFxFlg=           0 DoJE=T BraDBF=F KetDBF=T FulRan=T
         wScrn=  0.000000 ICntrl=     500 IOpCl=  0 I1Cent=   200000004 NGrid=           0
         NMat0=    1 NMatS0=      1 NMatT0=    0 NMatD0=    1 NMtDS0=    0 NMtDT0=    0
 Petite list used in FoFCou.
 Harris En= -75.9755875164641    
 JPrj=0 DoOrth=F DoCkMO=F.
 Initial guess orbital symmetries:
       Occupied  (A') (A') (A') (A') (A")
       Virtual   (A') (A') (A') (A") (A') (A') (A') (A')
 The electronic state of the initial guess is 1-A'.
 Leave Link  401 at Tue Mar 17 13:43:24 2020, MaxMem=    33554432 cpu:         0.1
 (Enter /usr/local/gaussian09d01/g09/l502.exe)
 Closed shell SCF:
 Using DIIS extrapolation, IDIIS=  1040.
 Integral symmetry usage will be decided dynamically.
 Keep R1 ints in memory in symmetry-blocked form, NReq=829331.
 IVT=       20162 IEndB=       20162 NGot=    33554432 MDV=    33531252
 LenX=    33531252 LenY=    33530370
 Requested convergence on RMS density matrix=1.00D-08 within 128 cycles.
 Requested convergence on MAX density matrix=1.00D-06.
 Requested convergence on             energy=1.00D-06.
 No special actions if energy rises.
 FoFCou: FMM=F IPFlag=           0 FMFlag=           0 FMFlg1=           0
         NFxFlg=           0 DoJE=F BraDBF=F KetDBF=F FulRan=T
         wScrn=  0.000000 ICntrl=     600 IOpCl=  0 I1Cent=           0 NGrid=           0
         NMat0=    1 NMatS0=     91 NMatT0=    0 NMatD0=    1 NMtDS0=    0 NMtDT0=    0
 Petite list used in FoFCou.

 Cycle   1  Pass 1  IDiag  1:
 E= -75.6704547443873    
 DIIS: error= 8.73D-02 at cycle   1 NSaved=   1.
 NSaved= 1 IEnMin= 1 EnMin= -75.6704547443873     IErMin= 1 ErrMin= 8.73D-02
 ErrMax= 8.73D-02  0.00D+00 EMaxC= 1.00D-01 BMatC= 1.56D-01 BMatP= 1.56D-01
 IDIUse=3 WtCom= 1.27D-01 WtEn= 8.73D-01
 Coeff-Com:  0.100D+01
 Coeff-En:   0.100D+01
 Coeff:      0.100D+01
 Gap=     0.215 Goal=   None    Shift=    0.000
 GapD=    0.215 DampG=1.000 DampE=0.500 DampFc=0.5000 IDamp=-1.
 Damping current iteration by 5.00D-01
 RMSDP=3.87D-02 MaxDP=2.14D-01              OVMax= 3.09D-01

 Cycle   2  Pass 1  IDiag  1:
 E= -75.7466190931907     Delta-E=       -0.076164348803 Rises=F Damp=T
 DIIS: error= 2.19D-02 at cycle   2 NSaved=   2.
 NSaved= 2 IEnMin= 2 EnMin= -75.7466190931907     IErMin= 2 ErrMin= 2.19D-02
 ErrMax= 2.19D-02  0.00D+00 EMaxC= 1.00D-01 BMatC= 9.09D-03 BMatP= 1.56D-01
 IDIUse=3 WtCom= 7.81D-01 WtEn= 2.19D-01
 Coeff-Com: -0.188D-01 0.102D+01
 Coeff-En:   0.000D+00 0.100D+01
 Coeff:     -0.147D-01 0.101D+01
 Gap=     0.463 Goal=   None    Shift=    0.000
 RMSDP=6.66D-03 MaxDP=3.21D-02 DE=-7.62D-02 OVMax= 1.37D-01

 Cycle   3  Pass 1  IDiag  1:
 E= -75.8245245548352     Delta-E=       -0.077905461645 Rises=F Damp=F
 DIIS: error= 8.79D-03 at cycle   3 NSaved=   3.
 NSaved= 3 IEnMin= 3 EnMin= -75.8245245548352     IErMin= 3 ErrMin= 8.79D-03
 ErrMax= 8.79D-03  0.00D+00 EMaxC= 1.00D-01 BMatC= 8.36D-04 BMatP= 9.09D-03
 IDIUse=3 WtCom= 9.12D-01 WtEn= 8.79D-02
 Coeff-Com:  0.519D-01-0.236D+00 0.118D+01
 Coeff-En:   0.000D+00 0.000D+00 0.100D+01
 Coeff:      0.473D-01-0.215D+00 0.117D+01
 Gap=     0.490 Goal=   None    Shift=    0.000
 RMSDP=2.50D-03 MaxDP=1.18D-02 DE=-7.79D-02 OVMax= 1.87D-02

 Cycle   4  Pass 1  IDiag  1:
 E= -75.8259022145579     Delta-E=       -0.001377659723 Rises=F Damp=F
 DIIS: error= 3.76D-03 at cycle   4 NSaved=   4.
 NSaved= 4 IEnMin= 4 EnMin= -75.8259022145579     IErMin= 4 ErrMin= 3.76D-03
 ErrMax= 3.76D-03  0.00D+00 EMaxC= 1.00D-01 BMatC= 1.25D-04 BMatP= 8.36D-04
 IDIUse=3 WtCom= 9.62D-01 WtEn= 3.76D-02
 Coeff-Com:  0.764D-02 0.239D-01-0.561D+00 0.153D+01
 Coeff-En:   0.000D+00 0.000D+00 0.000D+00 0.100D+01
 Coeff:      0.735D-02 0.230D-01-0.540D+00 0.151D+01
 Gap=     0.491 Goal=   None    Shift=    0.000
 RMSDP=1.26D-03 MaxDP=6.87D-03 DE=-1.38D-03 OVMax= 7.98D-03

 Cycle   5  Pass 1  IDiag  1:
 E= -75.8261117309692     Delta-E=       -0.000209516411 Rises=F Damp=F
 DIIS: error= 1.85D-04 at cycle   5 NSaved=   5.
 NSaved= 5 IEnMin= 5 EnMin= -75.8261117309692     IErMin= 5 ErrMin= 1.85D-04
 ErrMax= 1.85D-04  0.00D+00 EMaxC= 1.00D-01 BMatC= 9.51D-07 BMatP= 1.25D-04
 IDIUse=3 WtCom= 9.98D-01 WtEn= 1.85D-03
 Coeff-Com: -0.360D-02-0.226D-02 0.141D+00-0.465D+00 0.133D+01
 Coeff-En:   0.000D+00 0.000D+00 0.000D+00 0.000D+00 0.100D+01
 Coeff:     -0.360D-02-0.225D-02 0.141D+00-0.464D+00 0.133D+01
 Gap=     0.491 Goal=   None    Shift=    0.000
 RMSDP=1.68D-04 MaxDP=7.98D-04 DE=-2.10D-04 OVMax= 1.29D-03

 Cycle   6  Pass 1  IDiag  1:
 E= -75.8261149176807     Delta-E=       -0.000003186711 Rises=F Damp=F
 DIIS: error= 6.11D-05 at cycle   6 NSaved=   6.
 NSaved= 6 IEnMin= 6 EnMin= -75.8261149176807     IErMin= 6 ErrMin= 6.11D-05
 ErrMax= 6.11D-05  0.00D+00 EMaxC= 1.00D-01 BMatC= 5.83D-08 BMatP= 9.51D-07
 IDIUse=1 WtCom= 1.00D+00 WtEn= 0.00D+00
 Coeff-Com:  0.120D-02-0.154D-03-0.317D-01 0.113D+00-0.477D+00 0.139D+01
 Coeff:      0.120D-02-0.154D-03-0.317D-01 0.113D+00-0.477D+00 0.139D+01
 Gap=     0.491 Goal=   None    Shift=    0.000
 RMSDP=4.13D-05 MaxDP=1.92D-04 DE=-3.19D-06 OVMax= 3.68D-04

 Cycle   7  Pass 1  IDiag  1:
 E= -75.8261151752447     Delta-E=       -0.000000257564 Rises=F Damp=F
 DIIS: error= 2.58D-05 at cycle   7 NSaved=   7.
 NSaved= 7 IEnMin= 7 EnMin= -75.8261151752447     IErMin= 7 ErrMin= 2.58D-05
 ErrMax= 2.58D-05  0.00D+00 EMaxC= 1.00D-01 BMatC= 8.22D-09 BMatP= 5.83D-08
 IDIUse=1 WtCom= 1.00D+00 WtEn= 0.00D+00
 Coeff-Com: -0.236D-03 0.122D-03 0.286D-02-0.134D-01 0.140D+00-0.869D+00
 Coeff-Com:  0.174D+01
 Coeff:     -0.236D-03 0.122D-03 0.286D-02-0.134D-01 0.140D+00-0.869D+00
 Coeff:      0.174D+01
 Gap=     0.491 Goal=   None    Shift=    0.000
 RMSDP=2.12D-05 MaxDP=9.05D-05 DE=-2.58D-07 OVMax= 2.24D-04

 Cycle   8  Pass 1  IDiag  1:
 E= -75.8261152243584     Delta-E=       -0.000000049114 Rises=F Damp=F
 DIIS: error= 4.91D-06 at cycle   8 NSaved=   8.
 NSaved= 8 IEnMin= 8 EnMin= -75.8261152243584     IErMin= 8 ErrMin= 4.91D-06
 ErrMax= 4.91D-06  0.00D+00 EMaxC= 1.00D-01 BMatC= 4.40D-10 BMatP= 8.22D-09
 IDIUse=1 WtCom= 1.00D+00 WtEn= 0.00D+00
 Coeff-Com:  0.693D-04-0.114D-03 0.703D-03-0.568D-03-0.424D-01 0.379D+00
 Coeff-Com: -0.967D+00 0.163D+01
 Coeff:      0.693D-04-0.114D-03 0.703D-03-0.568D-03-0.424D-01 0.379D+00
 Coeff:     -0.967D+00 0.163D+01
 Gap=     0.491 Goal=   None    Shift=    0.000
 RMSDP=5.53D-06 MaxDP=1.74D-05 DE=-4.91D-08 OVMax= 5.41D-05

 Cycle   9  Pass 1  IDiag  1:
 E= -75.8261152267942     Delta-E=       -0.000000002436 Rises=F Damp=F
 DIIS: error= 1.16D-06 at cycle   9 NSaved=   9.
 NSaved= 9 IEnMin= 9 EnMin= -75.8261152267942     IErMin= 9 ErrMin= 1.16D-06
 ErrMax= 1.16D-06  0.00D+00 EMaxC= 1.00D-01 BMatC= 1.09D-11 BMatP= 4.40D-10
 IDIUse=1 WtCom= 1.00D+00 WtEn= 0.00D+00
 Coeff-Com: -0.162D-04 0.370D-04-0.433D-03 0.805D-03 0.128D-01-0.132D+00
 Coeff-Com:  0.349D+00-0.694D+00 0.146D+01
 Coeff:     -0.162D-04 0.370D-04-0.433D-03 0.805D-03 0.128D-01-0.132D+00
 Coeff:      0.349D+00-0.694D+00 0.146D+01
 Gap=     0.491 Goal=   None    Shift=    0.000
 RMSDP=7.15D-07 MaxDP=2.48D-06 DE=-2.44D-09 OVMax= 5.63D-06

 Cycle  10  Pass 1  IDiag  1:
 E= -75.8261152268281     Delta-E=       -0.000000000034 Rises=F Damp=F
 DIIS: error= 1.12D-07 at cycle  10 NSaved=  10.
 NSaved=10 IEnMin=10 EnMin= -75.8261152268281     IErMin=10 ErrMin= 1.12D-07
 ErrMax= 1.12D-07  0.00D+00 EMaxC= 1.00D-01 BMatC= 2.70D-13 BMatP= 1.09D-11
 IDIUse=1 WtCom= 1.00D+00 WtEn= 0.00D+00
 Coeff-Com:  0.504D-06-0.295D-05 0.702D-04-0.143D-03-0.159D-02 0.183D-01
 Coeff-Com: -0.486D-01 0.106D+00-0.273D+00 0.120D+01
 Coeff:      0.504D-06-0.295D-05 0.702D-04-0.143D-03-0.159D-02 0.183D-01
 Coeff:     -0.486D-01 0.106D+00-0.273D+00 0.120D+01
 Gap=     0.491 Goal=   None    Shift=    0.000
 RMSDP=5.04D-08 MaxDP=2.55D-07 DE=-3.40D-11 OVMax= 4.47D-07

 Cycle  11  Pass 1  IDiag  1:
 E= -75.8261152268285     Delta-E=        0.000000000000 Rises=F Damp=F
 DIIS: error= 1.07D-08 at cycle  11 NSaved=  11.
 NSaved=11 IEnMin=11 EnMin= -75.8261152268285     IErMin=11 ErrMin= 1.07D-08
 ErrMax= 1.07D-08  0.00D+00 EMaxC= 1.00D-01 BMatC= 1.78D-15 BMatP= 2.70D-13
 IDIUse=1 WtCom= 1.00D+00 WtEn= 0.00D+00
 Coeff-Com:  0.947D-08 0.526D-06-0.160D-04 0.327D-04 0.345D-03-0.411D-02
 Coeff-Com:  0.110D-01-0.247D-01 0.673D-01-0.380D+00 0.133D+01
 Coeff:      0.947D-08 0.526D-06-0.160D-04 0.327D-04 0.345D-03-0.411D-02
 Coeff:      0.110D-01-0.247D-01 0.673D-01-0.380D+00 0.133D+01
 Gap=     0.491 Goal=   None    Shift=    0.000
 RMSDP=7.43D-09 MaxDP=2.46D-08 DE=-3.98D-13 OVMax= 5.54D-08

 SCF Done:  E(RHF) =  -75.8261152268     A.U. after   11 cycles
            NFock= 11  Conv=0.74D-08     -V/T= 2.0056
 KE= 7.540468536695D+01 PE=-1.943439623664D+02 EE= 3.599075680910D+01
 Leave Link  502 at Tue Mar 17 13:43:24 2020, MaxMem=    33554432 cpu:         0.1
 (Enter /usr/local/gaussian09d01/g09/l601.exe)
 Copying SCF densities to generalized density rwf, IOpCl= 0 IROHF=0.

 **********************************************************************

            Population analysis using the SCF density.

 **********************************************************************

 Orbital symmetries:
       Occupied  (A') (A') (A') (A") (A')
       Virtual   (A') (A') (A') (A') (A") (A') (A') (A')
 The electronic state is 1-A'.
 Alpha  occ. eigenvalues --  -20.61014  -1.28829  -0.62017  -0.50139  -0.45890
 Alpha virt. eigenvalues --    0.03218   0.24890   0.95945   1.12464   1.16213
 Alpha virt. eigenvalues --    1.22749   1.32074   1.57534
          Condensed to atoms (all electrons):
               1          2          3
     1  O    8.215244   0.215554   0.189752
     2  H    0.215554   0.391313  -0.007213
     3  H    0.189752  -0.007213   0.597256
 Mulliken charges:
               1
     1  O   -0.620550
     2  H    0.400345
     3  H    0.220205
 Sum of Mulliken charges =   0.00000
 Mulliken charges with hydrogens summed into heavy atoms:
               1
     1  O    0.000000
 Electronic spatial extent (au):  <R**2>=             25.3890
 Charge=              0.0000 electrons
 Dipole moment (field-independent basis, Debye):
    X=              0.9415    Y=             -2.3569    Z=              0.0000  Tot=              2.5379
 Quadrupole moment (field-independent basis, Debye-Ang):
   XX=             -4.3584   YY=             -5.1125   ZZ=             -7.7823
   XY=              1.5438   XZ=              0.0000   YZ=              0.0000
 Traceless Quadrupole moment (field-independent basis, Debye-Ang):
   XX=              1.3927   YY=              0.6386   ZZ=             -2.0313
   XY=              1.5438   XZ=              0.0000   YZ=              0.0000
 Octapole moment (field-independent basis, Debye-Ang**2):
  XXX=              1.9545  YYY=             -2.2510  ZZZ=              0.0000  XYY=             -1.6057
  XXY=             -1.4927  XXZ=              0.0000  XZZ=              0.5993  YZZ=              0.2142
  YYZ=              0.0000  XYZ=              0.0000
 Hexadecapole moment (field-independent basis, Debye-Ang**3):
 XXXX=             -9.2195 YYYY=            -10.7823 ZZZZ=             -5.9486 XXXY=             -1.5149
 XXXZ=              0.0000 YYYX=              0.2565 YYYZ=              0.0000 ZZZX=              0.0000
 ZZZY=              0.0000 XXYY=             -2.1658 XXZZ=             -2.9668 YYZZ=             -3.5430
 XXYZ=              0.0000 YYXZ=              0.0000 ZZXY=             -0.9710
 N-N= 7.122404963485D+00 E-N=-1.943439623550D+02  KE= 7.540468536695D+01
 Symmetry A'   KE= 7.068839421386D+01
 Symmetry A"   KE= 4.716291153094D+00
 No NMR shielding tensors so no spin-rotation constants.
 Leave Link  601 at Tue Mar 17 13:43:24 2020, MaxMem=    33554432 cpu:         0.1
 (Enter /usr/local/gaussian09d01/g09/l9999.exe)
 1\1\GINC-KARURA\SP\RHF\6-31G\H2O1\RTAKE\17-Mar-2020\0\\#p HF/6-31G\\ch
 k calc\\0,1\O,0,0.049680185,0.249212663,-3.376084965\H,0,0.049680185,1
 .008549663,-2.780041965\H,0,0.049680185,-1.088023655,-2.326418813\\Ver
 sion=ES64L-G09RevD.01\State=1-A'\HF=-75.8261152\RMSD=7.430e-09\Dipole=
 0.,0.0422601,0.9976052\Quadrupole=-1.5102014,1.6914833,-0.1812819,0.,0
 .,-0.7205456\PG=CS [SG(H2O1)]\\@


 REALITY IS FOR PEOPLE WHO CAN'T FACE SCIENCE FICTION.
 Job cpu time:       0 days  0 hours  0 minutes  0.4 seconds.
 File lengths (MBytes):  RWF=      5 Int=      0 D2E=      0 Chk=      1 Scr=      1
 Normal termination of Gaussian 09 at Tue Mar 17 13:43:24 2020.
