 Entering Gaussian System, Link 0=g09
 Input=./h2o_o1h3_11.gjf
 Output=./h2o_o1h3_11.log
 Initial command:
 /usr/local/gaussian09d01/g09/l1.exe "/scr/Gau-18119.inp" -scrdir="/scr/"
 Entering Link 1 = /usr/local/gaussian09d01/g09/l1.exe PID=     18120.
  
 Copyright (c) 1988,1990,1992,1993,1995,1998,2003,2009,2013,
            Gaussian, Inc.  All Rights Reserved.
  
 This is part of the Gaussian(R) 09 program.  It is based on
 the Gaussian(R) 03 system (copyright 2003, Gaussian, Inc.),
 the Gaussian(R) 98 system (copyright 1998, Gaussian, Inc.),
 the Gaussian(R) 94 system (copyright 1995, Gaussian, Inc.),
 the Gaussian 92(TM) system (copyright 1992, Gaussian, Inc.),
 the Gaussian 90(TM) system (copyright 1990, Gaussian, Inc.),
 the Gaussian 88(TM) system (copyright 1988, Gaussian, Inc.),
 the Gaussian 86(TM) system (copyright 1986, Carnegie Mellon
 University), and the Gaussian 82(TM) system (copyright 1983,
 Carnegie Mellon University). Gaussian is a federally registered
 trademark of Gaussian, Inc.
  
 This software contains proprietary and confidential information,
 including trade secrets, belonging to Gaussian, Inc.
  
 This software is provided under written license and may be
 used, copied, transmitted, or stored only in accord with that
 written license.
  
 The following legend is applicable only to US Government
 contracts under FAR:
  
                    RESTRICTED RIGHTS LEGEND
  
 Use, reproduction and disclosure by the US Government is
 subject to restrictions as set forth in subparagraphs (a)
 and (c) of the Commercial Computer Software - Restricted
 Rights clause in FAR 52.227-19.
  
 Gaussian, Inc.
 340 Quinnipiac St., Bldg. 40, Wallingford CT 06492
  
  
 ---------------------------------------------------------------
 Warning -- This program may not be used in any manner that
 competes with the business of Gaussian, Inc. or will provide
 assistance to any competitor of Gaussian, Inc.  The licensee
 of this program is prohibited from giving any competitor of
 Gaussian, Inc. access to this program.  By using this program,
 the user acknowledges that Gaussian, Inc. is engaged in the
 business of creating and licensing software in the field of
 computational chemistry and represents and warrants to the
 licensee that it is not a competitor of Gaussian, Inc. and that
 it will not use this program in any manner prohibited above.
 ---------------------------------------------------------------
  

 Cite this work as:
 Gaussian 09, Revision D.01,
 M. J. Frisch, G. W. Trucks, H. B. Schlegel, G. E. Scuseria, 
 M. A. Robb, J. R. Cheeseman, G. Scalmani, V. Barone, B. Mennucci, 
 G. A. Petersson, H. Nakatsuji, M. Caricato, X. Li, H. P. Hratchian, 
 A. F. Izmaylov, J. Bloino, G. Zheng, J. L. Sonnenberg, M. Hada, 
 M. Ehara, K. Toyota, R. Fukuda, J. Hasegawa, M. Ishida, T. Nakajima, 
 Y. Honda, O. Kitao, H. Nakai, T. Vreven, J. A. Montgomery, Jr., 
 J. E. Peralta, F. Ogliaro, M. Bearpark, J. J. Heyd, E. Brothers, 
 K. N. Kudin, V. N. Staroverov, T. Keith, R. Kobayashi, J. Normand, 
 K. Raghavachari, A. Rendell, J. C. Burant, S. S. Iyengar, J. Tomasi, 
 M. Cossi, N. Rega, J. M. Millam, M. Klene, J. E. Knox, J. B. Cross, 
 V. Bakken, C. Adamo, J. Jaramillo, R. Gomperts, R. E. Stratmann, 
 O. Yazyev, A. J. Austin, R. Cammi, C. Pomelli, J. W. Ochterski, 
 R. L. Martin, K. Morokuma, V. G. Zakrzewski, G. A. Voth, 
 P. Salvador, J. J. Dannenberg, S. Dapprich, A. D. Daniels, 
 O. Farkas, J. B. Foresman, J. V. Ortiz, J. Cioslowski, 
 and D. J. Fox, Gaussian, Inc., Wallingford CT, 2013.
 
 ******************************************
 Gaussian 09:  ES64L-G09RevD.01 24-Apr-2013
                17-Mar-2020 
 ******************************************
 -----------
 #p HF/6-31G
 -----------
 1/38=1/1;
 2/12=2,17=6,18=5,40=1/2;
 3/5=1,6=6,11=9,16=1,25=1,30=1/1,2,3;
 4//1;
 5/5=2,38=5/2;
 6/7=2,8=2,9=2,10=2,28=1/1;
 99/5=1,9=1/99;
 Leave Link    1 at Tue Mar 17 13:43:21 2020, MaxMem=           0 cpu:         0.0
 (Enter /usr/local/gaussian09d01/g09/l101.exe)
 --------
 chk calc
 --------
 Symbolic Z-matrix:
 Charge =  0 Multiplicity = 1
 O                     0.04968   0.01323  -3.19085 
 H                     0.04968   0.77257  -2.59481 
 H                     0.04968  -0.85204  -2.51165 
 
 NAtoms=      3 NQM=        3 NQMF=       0 NMMI=      0 NMMIF=      0
                NMic=       0 NMicF=      0.
                    Isotopes and Nuclear Properties:
 (Nuclear quadrupole moments (NQMom) in fm**2, nuclear magnetic moments (NMagM)
  in nuclear magnetons)

  Atom         1           2           3
 IAtWgt=          16           1           1
 AtmWgt=  15.9949146   1.0078250   1.0078250
 NucSpn=           0           1           1
 AtZEff=   0.0000000   0.0000000   0.0000000
 NQMom=    0.0000000   0.0000000   0.0000000
 NMagM=    0.0000000   2.7928460   2.7928460
 AtZNuc=   8.0000000   1.0000000   1.0000000
 Leave Link  101 at Tue Mar 17 13:43:21 2020, MaxMem=    33554432 cpu:         0.0
 (Enter /usr/local/gaussian09d01/g09/l202.exe)
                          Input orientation:                          
 ---------------------------------------------------------------------
 Center     Atomic      Atomic             Coordinates (Angstroms)
 Number     Number       Type             X           Y           Z
 ---------------------------------------------------------------------
      1          8           0        0.049680    0.013230   -3.190850
      2          1           0        0.049680    0.772567   -2.594807
      3          1           0        0.049680   -0.852041   -2.511654
 ---------------------------------------------------------------------
                    Distance matrix (angstroms):
                    1          2          3
     1  O    0.000000
     2  H    0.965329   0.000000
     3  H    1.100000   1.626734   0.000000
 Stoichiometry    H2O
 Framework group  CS[SG(H2O)]
 Deg. of freedom     3
 Full point group                 CS      NOp   2
 Largest Abelian subgroup         CS      NOp   2
 Largest concise Abelian subgroup C1      NOp   1
                         Standard orientation:                         
 ---------------------------------------------------------------------
 Center     Atomic      Atomic             Coordinates (Angstroms)
 Number     Number       Type             X           Y           Z
 ---------------------------------------------------------------------
      1          8           0        0.000000    0.127963    0.000000
      2          1           0        0.806074   -0.403173    0.000000
      3          1           0       -0.806074   -0.620532    0.000000
 ---------------------------------------------------------------------
 Rotational constants (GHZ):    716.8193660    371.2622145    244.5845514
 Leave Link  202 at Tue Mar 17 13:43:21 2020, MaxMem=    33554432 cpu:         0.0
 (Enter /usr/local/gaussian09d01/g09/l301.exe)
 Standard basis: 6-31G (6D, 7F)
 Ernie: Thresh=  0.10000D-02 Tol=  0.10000D-05 Strict=F.
 There are    11 symmetry adapted cartesian basis functions of A'  symmetry.
 There are     2 symmetry adapted cartesian basis functions of A"  symmetry.
 There are    11 symmetry adapted basis functions of A'  symmetry.
 There are     2 symmetry adapted basis functions of A"  symmetry.
    13 basis functions,    30 primitive gaussians,    13 cartesian basis functions
     5 alpha electrons        5 beta electrons
       nuclear repulsion energy         8.5593283730 Hartrees.
 IExCor=    0 DFT=F Ex=HF Corr=None ExCW=0 ScaHFX=  1.000000
 ScaDFX=  1.000000  1.000000  1.000000  1.000000 ScalE2=  1.000000  1.000000
 IRadAn=      0 IRanWt=     -1 IRanGd=            0 ICorTp=0 IEmpDi=  4
 NAtoms=    3 NActive=    3 NUniq=    3 SFac= 1.00D+00 NAtFMM=   60 NAOKFM=F Big=F
 Integral buffers will be    131072 words long.
 Raffenetti 1 integral format.
 Two-electron integral symmetry is turned on.
 Leave Link  301 at Tue Mar 17 13:43:21 2020, MaxMem=    33554432 cpu:         0.0
 (Enter /usr/local/gaussian09d01/g09/l302.exe)
 NPDir=0 NMtPBC=     1 NCelOv=     1 NCel=       1 NClECP=     1 NCelD=      1
         NCelK=      1 NCelE2=     1 NClLst=     1 CellRange=     0.0.
 One-electron integrals computed using PRISM.
 NBasis=    13 RedAO= T EigKep=  1.08D-01  NBF=    11     2
 NBsUse=    13 1.00D-06 EigRej= -1.00D+00 NBFU=    11     2
 Leave Link  302 at Tue Mar 17 13:43:22 2020, MaxMem=    33554432 cpu:         0.1
 (Enter /usr/local/gaussian09d01/g09/l303.exe)
 DipDrv:  MaxL=1.
 Leave Link  303 at Tue Mar 17 13:43:22 2020, MaxMem=    33554432 cpu:         0.0
 (Enter /usr/local/gaussian09d01/g09/l401.exe)
 ExpMin= 1.61D-01 ExpMax= 5.48D+03 ExpMxC= 8.25D+02 IAcc=1 IRadAn=         1 AccDes= 0.00D+00
 Harris functional with IExCor=  205 and IRadAn=       1 diagonalized for initial guess.
 HarFok:  IExCor=  205 AccDes= 0.00D+00 IRadAn=         1 IDoV= 1 UseB2=F ITyADJ=14
 ICtDFT=  3500011 ScaDFX=  1.000000  1.000000  1.000000  1.000000
 FoFCou: FMM=F IPFlag=           0 FMFlag=      100000 FMFlg1=           0
         NFxFlg=           0 DoJE=T BraDBF=F KetDBF=T FulRan=T
         wScrn=  0.000000 ICntrl=     500 IOpCl=  0 I1Cent=   200000004 NGrid=           0
         NMat0=    1 NMatS0=      1 NMatT0=    0 NMatD0=    1 NMtDS0=    0 NMtDT0=    0
 Petite list used in FoFCou.
 Harris En= -76.0741257749025    
 JPrj=0 DoOrth=F DoCkMO=F.
 Initial guess orbital symmetries:
       Occupied  (A') (A') (A') (A') (A")
       Virtual   (A') (A') (A') (A") (A') (A') (A') (A')
 The electronic state of the initial guess is 1-A'.
 Leave Link  401 at Tue Mar 17 13:43:22 2020, MaxMem=    33554432 cpu:         0.1
 (Enter /usr/local/gaussian09d01/g09/l502.exe)
 Closed shell SCF:
 Using DIIS extrapolation, IDIIS=  1040.
 Integral symmetry usage will be decided dynamically.
 Keep R1 ints in memory in symmetry-blocked form, NReq=829401.
 IVT=       20162 IEndB=       20162 NGot=    33554432 MDV=    33531252
 LenX=    33531252 LenY=    33530370
 Requested convergence on RMS density matrix=1.00D-08 within 128 cycles.
 Requested convergence on MAX density matrix=1.00D-06.
 Requested convergence on             energy=1.00D-06.
 No special actions if energy rises.
 FoFCou: FMM=F IPFlag=           0 FMFlag=           0 FMFlg1=           0
         NFxFlg=           0 DoJE=F BraDBF=F KetDBF=F FulRan=T
         wScrn=  0.000000 ICntrl=     600 IOpCl=  0 I1Cent=           0 NGrid=           0
         NMat0=    1 NMatS0=     91 NMatT0=    0 NMatD0=    1 NMtDS0=    0 NMtDT0=    0
 Petite list used in FoFCou.

 Cycle   1  Pass 1  IDiag  1:
 E= -75.8853956717237    
 DIIS: error= 8.49D-02 at cycle   1 NSaved=   1.
 NSaved= 1 IEnMin= 1 EnMin= -75.8853956717237     IErMin= 1 ErrMin= 8.49D-02
 ErrMax= 8.49D-02  0.00D+00 EMaxC= 1.00D-01 BMatC= 1.10D-01 BMatP= 1.10D-01
 IDIUse=3 WtCom= 1.51D-01 WtEn= 8.49D-01
 Coeff-Com:  0.100D+01
 Coeff-En:   0.100D+01
 Coeff:      0.100D+01
 Gap=     0.548 Goal=   None    Shift=    0.000
 GapD=    0.548 DampG=2.000 DampE=0.500 DampFc=1.0000 IDamp=-1.
 RMSDP=2.35D-02 MaxDP=1.24D-01              OVMax= 1.32D-01

 Cycle   2  Pass 1  IDiag  1:
 E= -75.9366012504543     Delta-E=       -0.051205578731 Rises=F Damp=F
 DIIS: error= 5.67D-02 at cycle   2 NSaved=   2.
 NSaved= 2 IEnMin= 2 EnMin= -75.9366012504543     IErMin= 2 ErrMin= 5.67D-02
 ErrMax= 5.67D-02  0.00D+00 EMaxC= 1.00D-01 BMatC= 4.43D-02 BMatP= 1.10D-01
 IDIUse=3 WtCom= 4.33D-01 WtEn= 5.67D-01
 Coeff-Com:  0.379D+00 0.621D+00
 Coeff-En:   0.167D+00 0.833D+00
 Coeff:      0.259D+00 0.741D+00
 Gap=     0.693 Goal=   None    Shift=    0.000
 RMSDP=1.20D-02 MaxDP=6.17D-02 DE=-5.12D-02 OVMax= 4.42D-02

 Cycle   3  Pass 1  IDiag  1:
 E= -75.9662712409786     Delta-E=       -0.029669990524 Rises=F Damp=F
 DIIS: error= 1.21D-02 at cycle   3 NSaved=   3.
 NSaved= 3 IEnMin= 3 EnMin= -75.9662712409786     IErMin= 3 ErrMin= 1.21D-02
 ErrMax= 1.21D-02  0.00D+00 EMaxC= 1.00D-01 BMatC= 1.91D-03 BMatP= 4.43D-02
 IDIUse=3 WtCom= 8.79D-01 WtEn= 1.21D-01
 Coeff-Com: -0.392D-01 0.130D+00 0.910D+00
 Coeff-En:   0.000D+00 0.000D+00 0.100D+01
 Coeff:     -0.345D-01 0.114D+00 0.921D+00
 Gap=     0.673 Goal=   None    Shift=    0.000
 RMSDP=2.20D-03 MaxDP=1.22D-02 DE=-2.97D-02 OVMax= 1.27D-02

 Cycle   4  Pass 1  IDiag  1:
 E= -75.9678312646399     Delta-E=       -0.001560023661 Rises=F Damp=F
 DIIS: error= 1.98D-03 at cycle   4 NSaved=   4.
 NSaved= 4 IEnMin= 4 EnMin= -75.9678312646399     IErMin= 4 ErrMin= 1.98D-03
 ErrMax= 1.98D-03  0.00D+00 EMaxC= 1.00D-01 BMatC= 3.05D-05 BMatP= 1.91D-03
 IDIUse=3 WtCom= 9.80D-01 WtEn= 1.98D-02
 Coeff-Com:  0.993D-02-0.802D-01-0.312D+00 0.138D+01
 Coeff-En:   0.000D+00 0.000D+00 0.000D+00 0.100D+01
 Coeff:      0.974D-02-0.786D-01-0.306D+00 0.138D+01
 Gap=     0.679 Goal=   None    Shift=    0.000
 RMSDP=4.25D-04 MaxDP=2.93D-03 DE=-1.56D-03 OVMax= 1.57D-03

 Cycle   5  Pass 1  IDiag  1:
 E= -75.9678645825944     Delta-E=       -0.000033317955 Rises=F Damp=F
 DIIS: error= 1.70D-04 at cycle   5 NSaved=   5.
 NSaved= 5 IEnMin= 5 EnMin= -75.9678645825944     IErMin= 5 ErrMin= 1.70D-04
 ErrMax= 1.70D-04  0.00D+00 EMaxC= 1.00D-01 BMatC= 2.07D-07 BMatP= 3.05D-05
 IDIUse=3 WtCom= 9.98D-01 WtEn= 1.70D-03
 Coeff-Com: -0.229D-02 0.237D-01 0.837D-01-0.490D+00 0.138D+01
 Coeff-En:   0.000D+00 0.000D+00 0.000D+00 0.000D+00 0.100D+01
 Coeff:     -0.229D-02 0.236D-01 0.836D-01-0.489D+00 0.138D+01
 Gap=     0.679 Goal=   None    Shift=    0.000
 RMSDP=7.73D-05 MaxDP=3.87D-04 DE=-3.33D-05 OVMax= 4.81D-04

 Cycle   6  Pass 1  IDiag  1:
 E= -75.9678651171204     Delta-E=       -0.000000534526 Rises=F Damp=F
 DIIS: error= 1.56D-05 at cycle   6 NSaved=   6.
 NSaved= 6 IEnMin= 6 EnMin= -75.9678651171204     IErMin= 6 ErrMin= 1.56D-05
 ErrMax= 1.56D-05  0.00D+00 EMaxC= 1.00D-01 BMatC= 4.45D-09 BMatP= 2.07D-07
 IDIUse=1 WtCom= 1.00D+00 WtEn= 0.00D+00
 Coeff-Com:  0.804D-03-0.890D-02-0.308D-01 0.195D+00-0.618D+00 0.146D+01
 Coeff:      0.804D-03-0.890D-02-0.308D-01 0.195D+00-0.618D+00 0.146D+01
 Gap=     0.679 Goal=   None    Shift=    0.000
 RMSDP=1.13D-05 MaxDP=5.27D-05 DE=-5.35D-07 OVMax= 7.04D-05

 Cycle   7  Pass 1  IDiag  1:
 E= -75.9678651302835     Delta-E=       -0.000000013163 Rises=F Damp=F
 DIIS: error= 4.51D-06 at cycle   7 NSaved=   7.
 NSaved= 7 IEnMin= 7 EnMin= -75.9678651302835     IErMin= 7 ErrMin= 4.51D-06
 ErrMax= 4.51D-06  0.00D+00 EMaxC= 1.00D-01 BMatC= 2.90D-10 BMatP= 4.45D-09
 IDIUse=1 WtCom= 1.00D+00 WtEn= 0.00D+00
 Coeff-Com: -0.921D-04 0.126D-02 0.415D-02-0.329D-01 0.122D+00-0.492D+00
 Coeff-Com:  0.140D+01
 Coeff:     -0.921D-04 0.126D-02 0.415D-02-0.329D-01 0.122D+00-0.492D+00
 Coeff:      0.140D+01
 Gap=     0.679 Goal=   None    Shift=    0.000
 RMSDP=2.67D-06 MaxDP=1.22D-05 DE=-1.32D-08 OVMax= 1.89D-05

 Cycle   8  Pass 1  IDiag  1:
 E= -75.9678651310567     Delta-E=       -0.000000000773 Rises=F Damp=F
 DIIS: error= 5.27D-07 at cycle   8 NSaved=   8.
 NSaved= 8 IEnMin= 8 EnMin= -75.9678651310567     IErMin= 8 ErrMin= 5.27D-07
 ErrMax= 5.27D-07  0.00D+00 EMaxC= 1.00D-01 BMatC= 4.58D-12 BMatP= 2.90D-10
 IDIUse=1 WtCom= 1.00D+00 WtEn= 0.00D+00
 Coeff-Com: -0.119D-04 0.467D-04 0.248D-03 0.545D-03-0.664D-02 0.661D-01
 Coeff-Com: -0.330D+00 0.127D+01
 Coeff:     -0.119D-04 0.467D-04 0.248D-03 0.545D-03-0.664D-02 0.661D-01
 Coeff:     -0.330D+00 0.127D+01
 Gap=     0.679 Goal=   None    Shift=    0.000
 RMSDP=3.86D-07 MaxDP=1.30D-06 DE=-7.73D-10 OVMax= 2.45D-06

 Cycle   9  Pass 1  IDiag  1:
 E= -75.9678651310707     Delta-E=       -0.000000000014 Rises=F Damp=F
 DIIS: error= 9.82D-08 at cycle   9 NSaved=   9.
 NSaved= 9 IEnMin= 9 EnMin= -75.9678651310707     IErMin= 9 ErrMin= 9.82D-08
 ErrMax= 9.82D-08  0.00D+00 EMaxC= 1.00D-01 BMatC= 1.33D-13 BMatP= 4.58D-12
 IDIUse=1 WtCom= 1.00D+00 WtEn= 0.00D+00
 Coeff-Com:  0.269D-05-0.376D-05-0.377D-04-0.400D-03 0.263D-02-0.202D-01
 Coeff-Com:  0.965D-01-0.464D+00 0.139D+01
 Coeff:      0.269D-05-0.376D-05-0.377D-04-0.400D-03 0.263D-02-0.202D-01
 Coeff:      0.965D-01-0.464D+00 0.139D+01
 Gap=     0.679 Goal=   None    Shift=    0.000
 RMSDP=8.14D-08 MaxDP=3.15D-07 DE=-1.39D-11 OVMax= 5.33D-07

 Cycle  10  Pass 1  IDiag  1:
 E= -75.9678651310712     Delta-E=       -0.000000000001 Rises=F Damp=F
 DIIS: error= 1.49D-08 at cycle  10 NSaved=  10.
 NSaved=10 IEnMin=10 EnMin= -75.9678651310712     IErMin=10 ErrMin= 1.49D-08
 ErrMax= 1.49D-08  0.00D+00 EMaxC= 1.00D-01 BMatC= 3.52D-15 BMatP= 1.33D-13
 IDIUse=1 WtCom= 1.00D+00 WtEn= 0.00D+00
 Coeff-Com: -0.735D-06 0.399D-06 0.857D-05 0.134D-03-0.807D-03 0.589D-02
 Coeff-Com: -0.284D-01 0.148D+00-0.546D+00 0.142D+01
 Coeff:     -0.735D-06 0.399D-06 0.857D-05 0.134D-03-0.807D-03 0.589D-02
 Coeff:     -0.284D-01 0.148D+00-0.546D+00 0.142D+01
 Gap=     0.679 Goal=   None    Shift=    0.000
 RMSDP=1.06D-08 MaxDP=4.38D-08 DE=-5.68D-13 OVMax= 6.73D-08

 Cycle  11  Pass 1  IDiag  1:
 E= -75.9678651310711     Delta-E=        0.000000000000 Rises=F Damp=F
 DIIS: error= 2.18D-09 at cycle  11 NSaved=  11.
 NSaved=11 IEnMin=10 EnMin= -75.9678651310712     IErMin=11 ErrMin= 2.18D-09
 ErrMax= 2.18D-09  0.00D+00 EMaxC= 1.00D-01 BMatC= 7.87D-17 BMatP= 3.52D-15
 IDIUse=1 WtCom= 1.00D+00 WtEn= 0.00D+00
 Coeff-Com:  0.130D-06-0.404D-06-0.238D-05-0.923D-05 0.765D-04-0.656D-03
 Coeff-Com:  0.363D-02-0.216D-01 0.966D-01-0.363D+00 0.129D+01
 Coeff:      0.130D-06-0.404D-06-0.238D-05-0.923D-05 0.765D-04-0.656D-03
 Coeff:      0.363D-02-0.216D-01 0.966D-01-0.363D+00 0.129D+01
 Gap=     0.679 Goal=   None    Shift=    0.000
 RMSDP=1.42D-09 MaxDP=6.40D-09 DE= 1.71D-13 OVMax= 9.45D-09

 SCF Done:  E(RHF) =  -75.9678651311     A.U. after   11 cycles
            NFock= 11  Conv=0.14D-08     -V/T= 2.0029
 KE= 7.574934007865D+01 PE=-1.975658084141D+02 EE= 3.728927483136D+01
 Leave Link  502 at Tue Mar 17 13:43:22 2020, MaxMem=    33554432 cpu:         0.1
 (Enter /usr/local/gaussian09d01/g09/l601.exe)
 Copying SCF densities to generalized density rwf, IOpCl= 0 IROHF=0.

 **********************************************************************

            Population analysis using the SCF density.

 **********************************************************************

 Orbital symmetries:
       Occupied  (A') (A') (A') (A') (A")
       Virtual   (A') (A') (A') (A') (A") (A') (A') (A')
 The electronic state is 1-A'.
 Alpha  occ. eigenvalues --  -20.57538  -1.32466  -0.67082  -0.54929  -0.49881
 Alpha virt. eigenvalues --    0.18021   0.27981   1.00337   1.12798   1.16391
 Alpha virt. eigenvalues --    1.22420   1.36972   1.69101
          Condensed to atoms (all electrons):
               1          2          3
     1  O    8.299943   0.243151   0.242617
     2  H    0.243151   0.384788  -0.027078
     3  H    0.242617  -0.027078   0.397888
 Mulliken charges:
               1
     1  O   -0.785712
     2  H    0.399139
     3  H    0.386573
 Sum of Mulliken charges =   0.00000
 Mulliken charges with hydrogens summed into heavy atoms:
               1
     1  O    0.000000
 Electronic spatial extent (au):  <R**2>=             20.1623
 Charge=              0.0000 electrons
 Dipole moment (field-independent basis, Debye):
    X=              0.1844    Y=             -2.6545    Z=              0.0000  Tot=              2.6609
 Quadrupole moment (field-independent basis, Debye-Ang):
   XX=             -4.1556   YY=             -6.0944   ZZ=             -7.3677
   XY=              0.3517   XZ=              0.0000   YZ=              0.0000
 Traceless Quadrupole moment (field-independent basis, Debye-Ang):
   XX=              1.7169   YY=             -0.2218   ZZ=             -1.4951
   XY=              0.3517   XZ=              0.0000   YZ=              0.0000
 Octapole moment (field-independent basis, Debye-Ang**2):
  XXX=              0.2930  YYY=             -1.5797  ZZZ=              0.0000  XYY=             -0.2323
  XXY=             -1.5007  XXZ=              0.0000  XZZ=              0.1219  YZZ=             -0.3736
  YYZ=              0.0000  XYZ=              0.0000
 Hexadecapole moment (field-independent basis, Debye-Ang**3):
 XXXX=             -6.2870 YYYY=             -6.7547 ZZZZ=             -5.3646 XXXY=             -0.0801
 XXXZ=              0.0000 YYYX=             -0.0216 YYYZ=              0.0000 ZZZX=              0.0000
 ZZZY=              0.0000 XXYY=             -1.7253 XXZZ=             -2.2433 YYZZ=             -2.1004
 XXYZ=              0.0000 YYXZ=              0.0000 ZZXY=             -0.1150
 N-N= 8.559328373018D+00 E-N=-1.975658083991D+02  KE= 7.574934007865D+01
 Symmetry A'   KE= 7.115521903550D+01
 Symmetry A"   KE= 4.594121043151D+00
 No NMR shielding tensors so no spin-rotation constants.
 Leave Link  601 at Tue Mar 17 13:43:22 2020, MaxMem=    33554432 cpu:         0.1
 (Enter /usr/local/gaussian09d01/g09/l9999.exe)
 1\1\GINC-KARURA\SP\RHF\6-31G\H2O1\RTAKE\17-Mar-2020\0\\#p HF/6-31G\\ch
 k calc\\0,1\O,0,0.049680185,0.013229783,-3.190849761\H,0,0.049680185,0
 .772566783,-2.594806761\H,0,0.049680185,-0.852040775,-2.511654016\\Ver
 sion=ES64L-G09RevD.01\State=1-A'\HF=-75.9678651\RMSD=1.417e-09\Dipole=
 0.,-0.0141701,1.0467775\Quadrupole=-1.111575,1.3097549,-0.1981799,0.,0
 .,-0.1389642\PG=CS [SG(H2O1)]\\@


 When cryptography is outlawed, bayl bhgynjf jvyy unir cevinpl.
 Job cpu time:       0 days  0 hours  0 minutes  0.4 seconds.
 File lengths (MBytes):  RWF=      5 Int=      0 D2E=      0 Chk=      1 Scr=      1
 Normal termination of Gaussian 09 at Tue Mar 17 13:43:22 2020.
