 Entering Gaussian System, Link 0=g09
 Input=./h2o_o1h3_19.gjf
 Output=./h2o_o1h3_19.log
 Initial command:
 /usr/local/gaussian09d01/g09/l1.exe "/scr/Gau-18137.inp" -scrdir="/scr/"
 Entering Link 1 = /usr/local/gaussian09d01/g09/l1.exe PID=     18138.
  
 Copyright (c) 1988,1990,1992,1993,1995,1998,2003,2009,2013,
            Gaussian, Inc.  All Rights Reserved.
  
 This is part of the Gaussian(R) 09 program.  It is based on
 the Gaussian(R) 03 system (copyright 2003, Gaussian, Inc.),
 the Gaussian(R) 98 system (copyright 1998, Gaussian, Inc.),
 the Gaussian(R) 94 system (copyright 1995, Gaussian, Inc.),
 the Gaussian 92(TM) system (copyright 1992, Gaussian, Inc.),
 the Gaussian 90(TM) system (copyright 1990, Gaussian, Inc.),
 the Gaussian 88(TM) system (copyright 1988, Gaussian, Inc.),
 the Gaussian 86(TM) system (copyright 1986, Carnegie Mellon
 University), and the Gaussian 82(TM) system (copyright 1983,
 Carnegie Mellon University). Gaussian is a federally registered
 trademark of Gaussian, Inc.
  
 This software contains proprietary and confidential information,
 including trade secrets, belonging to Gaussian, Inc.
  
 This software is provided under written license and may be
 used, copied, transmitted, or stored only in accord with that
 written license.
  
 The following legend is applicable only to US Government
 contracts under FAR:
  
                    RESTRICTED RIGHTS LEGEND
  
 Use, reproduction and disclosure by the US Government is
 subject to restrictions as set forth in subparagraphs (a)
 and (c) of the Commercial Computer Software - Restricted
 Rights clause in FAR 52.227-19.
  
 Gaussian, Inc.
 340 Quinnipiac St., Bldg. 40, Wallingford CT 06492
  
  
 ---------------------------------------------------------------
 Warning -- This program may not be used in any manner that
 competes with the business of Gaussian, Inc. or will provide
 assistance to any competitor of Gaussian, Inc.  The licensee
 of this program is prohibited from giving any competitor of
 Gaussian, Inc. access to this program.  By using this program,
 the user acknowledges that Gaussian, Inc. is engaged in the
 business of creating and licensing software in the field of
 computational chemistry and represents and warrants to the
 licensee that it is not a competitor of Gaussian, Inc. and that
 it will not use this program in any manner prohibited above.
 ---------------------------------------------------------------
  

 Cite this work as:
 Gaussian 09, Revision D.01,
 M. J. Frisch, G. W. Trucks, H. B. Schlegel, G. E. Scuseria, 
 M. A. Robb, J. R. Cheeseman, G. Scalmani, V. Barone, B. Mennucci, 
 G. A. Petersson, H. Nakatsuji, M. Caricato, X. Li, H. P. Hratchian, 
 A. F. Izmaylov, J. Bloino, G. Zheng, J. L. Sonnenberg, M. Hada, 
 M. Ehara, K. Toyota, R. Fukuda, J. Hasegawa, M. Ishida, T. Nakajima, 
 Y. Honda, O. Kitao, H. Nakai, T. Vreven, J. A. Montgomery, Jr., 
 J. E. Peralta, F. Ogliaro, M. Bearpark, J. J. Heyd, E. Brothers, 
 K. N. Kudin, V. N. Staroverov, T. Keith, R. Kobayashi, J. Normand, 
 K. Raghavachari, A. Rendell, J. C. Burant, S. S. Iyengar, J. Tomasi, 
 M. Cossi, N. Rega, J. M. Millam, M. Klene, J. E. Knox, J. B. Cross, 
 V. Bakken, C. Adamo, J. Jaramillo, R. Gomperts, R. E. Stratmann, 
 O. Yazyev, A. J. Austin, R. Cammi, C. Pomelli, J. W. Ochterski, 
 R. L. Martin, K. Morokuma, V. G. Zakrzewski, G. A. Voth, 
 P. Salvador, J. J. Dannenberg, S. Dapprich, A. D. Daniels, 
 O. Farkas, J. B. Foresman, J. V. Ortiz, J. Cioslowski, 
 and D. J. Fox, Gaussian, Inc., Wallingford CT, 2013.
 
 ******************************************
 Gaussian 09:  ES64L-G09RevD.01 24-Apr-2013
                17-Mar-2020 
 ******************************************
 -----------
 #p HF/6-31G
 -----------
 1/38=1/1;
 2/12=2,17=6,18=5,40=1/2;
 3/5=1,6=6,11=9,16=1,25=1,30=1/1,2,3;
 4//1;
 5/5=2,38=5/2;
 6/7=2,8=2,9=2,10=2,28=1/1;
 99/5=1,9=1/99;
 Leave Link    1 at Tue Mar 17 13:43:25 2020, MaxMem=           0 cpu:         0.0
 (Enter /usr/local/gaussian09d01/g09/l101.exe)
 --------
 chk calc
 --------
 Symbolic Z-matrix:
 Charge =  0 Multiplicity = 1
 O                     0.04968   0.32787  -3.43783 
 H                     0.04968   1.08721  -2.84179 
 H                     0.04968  -1.16668  -2.26467 
 
 NAtoms=      3 NQM=        3 NQMF=       0 NMMI=      0 NMMIF=      0
                NMic=       0 NMicF=      0.
                    Isotopes and Nuclear Properties:
 (Nuclear quadrupole moments (NQMom) in fm**2, nuclear magnetic moments (NMagM)
  in nuclear magnetons)

  Atom         1           2           3
 IAtWgt=          16           1           1
 AtmWgt=  15.9949146   1.0078250   1.0078250
 NucSpn=           0           1           1
 AtZEff=   0.0000000   0.0000000   0.0000000
 NQMom=    0.0000000   0.0000000   0.0000000
 NMagM=    0.0000000   2.7928460   2.7928460
 AtZNuc=   8.0000000   1.0000000   1.0000000
 Leave Link  101 at Tue Mar 17 13:43:25 2020, MaxMem=    33554432 cpu:         0.0
 (Enter /usr/local/gaussian09d01/g09/l202.exe)
                          Input orientation:                          
 ---------------------------------------------------------------------
 Center     Atomic      Atomic             Coordinates (Angstroms)
 Number     Number       Type             X           Y           Z
 ---------------------------------------------------------------------
      1          8           0        0.049680    0.327874   -3.437830
      2          1           0        0.049680    1.087211   -2.841787
      3          1           0        0.049680   -1.166685   -2.264674
 ---------------------------------------------------------------------
                    Distance matrix (angstroms):
                    1          2          3
     1  O    0.000000
     2  H    0.965329   0.000000
     3  H    1.900000   2.326608   0.000000
 Stoichiometry    H2O
 Framework group  CS[SG(H2O)]
 Deg. of freedom     3
 Full point group                 CS      NOp   2
 Largest Abelian subgroup         CS      NOp   2
 Largest concise Abelian subgroup C1      NOp   1
                         Standard orientation:                         
 ---------------------------------------------------------------------
 Center     Atomic      Atomic             Coordinates (Angstroms)
 Number     Number       Type             X           Y           Z
 ---------------------------------------------------------------------
      1          8           0        0.000000    0.191589    0.000000
      2          1           0        0.929931   -0.067424    0.000000
      3          1           0       -0.929931   -1.465284    0.000000
 ---------------------------------------------------------------------
 Rotational constants (GHZ):    629.7395253    141.6471029    115.6369271
 Leave Link  202 at Tue Mar 17 13:43:25 2020, MaxMem=    33554432 cpu:         0.0
 (Enter /usr/local/gaussian09d01/g09/l301.exe)
 Standard basis: 6-31G (6D, 7F)
 Ernie: Thresh=  0.10000D-02 Tol=  0.10000D-05 Strict=F.
 There are    11 symmetry adapted cartesian basis functions of A'  symmetry.
 There are     2 symmetry adapted cartesian basis functions of A"  symmetry.
 There are    11 symmetry adapted basis functions of A'  symmetry.
 There are     2 symmetry adapted basis functions of A"  symmetry.
    13 basis functions,    30 primitive gaussians,    13 cartesian basis functions
     5 alpha electrons        5 beta electrons
       nuclear repulsion energy         6.8410268831 Hartrees.
 IExCor=    0 DFT=F Ex=HF Corr=None ExCW=0 ScaHFX=  1.000000
 ScaDFX=  1.000000  1.000000  1.000000  1.000000 ScalE2=  1.000000  1.000000
 IRadAn=      0 IRanWt=     -1 IRanGd=            0 ICorTp=0 IEmpDi=  4
 NAtoms=    3 NActive=    3 NUniq=    3 SFac= 1.00D+00 NAtFMM=   60 NAOKFM=F Big=F
 Integral buffers will be    131072 words long.
 Raffenetti 1 integral format.
 Two-electron integral symmetry is turned on.
 Leave Link  301 at Tue Mar 17 13:43:25 2020, MaxMem=    33554432 cpu:         0.0
 (Enter /usr/local/gaussian09d01/g09/l302.exe)
 NPDir=0 NMtPBC=     1 NCelOv=     1 NCel=       1 NClECP=     1 NCelD=      1
         NCelK=      1 NCelE2=     1 NClLst=     1 CellRange=     0.0.
 One-electron integrals computed using PRISM.
 NBasis=    13 RedAO= T EigKep=  1.19D-01  NBF=    11     2
 NBsUse=    13 1.00D-06 EigRej= -1.00D+00 NBFU=    11     2
 Leave Link  302 at Tue Mar 17 13:43:25 2020, MaxMem=    33554432 cpu:         0.1
 (Enter /usr/local/gaussian09d01/g09/l303.exe)
 DipDrv:  MaxL=1.
 Leave Link  303 at Tue Mar 17 13:43:25 2020, MaxMem=    33554432 cpu:         0.0
 (Enter /usr/local/gaussian09d01/g09/l401.exe)
 ExpMin= 1.61D-01 ExpMax= 5.48D+03 ExpMxC= 8.25D+02 IAcc=1 IRadAn=         1 AccDes= 0.00D+00
 Harris functional with IExCor=  205 and IRadAn=       1 diagonalized for initial guess.
 HarFok:  IExCor=  205 AccDes= 0.00D+00 IRadAn=         1 IDoV= 1 UseB2=F ITyADJ=14
 ICtDFT=  3500011 ScaDFX=  1.000000  1.000000  1.000000  1.000000
 FoFCou: FMM=F IPFlag=           0 FMFlag=      100000 FMFlg1=           0
         NFxFlg=           0 DoJE=T BraDBF=F KetDBF=T FulRan=T
         wScrn=  0.000000 ICntrl=     500 IOpCl=  0 I1Cent=   200000004 NGrid=           0
         NMat0=    1 NMatS0=      1 NMatT0=    0 NMatD0=    1 NMtDS0=    0 NMtDT0=    0
 Petite list used in FoFCou.
 Harris En= -75.9542389938662    
 JPrj=0 DoOrth=F DoCkMO=F.
 Initial guess orbital symmetries:
       Occupied  (A') (A') (A') (A') (A")
       Virtual   (A') (A') (A') (A") (A') (A') (A') (A')
 The electronic state of the initial guess is 1-A'.
 Leave Link  401 at Tue Mar 17 13:43:25 2020, MaxMem=    33554432 cpu:         0.1
 (Enter /usr/local/gaussian09d01/g09/l502.exe)
 Closed shell SCF:
 Using DIIS extrapolation, IDIIS=  1040.
 Integral symmetry usage will be decided dynamically.
 Keep R1 ints in memory in symmetry-blocked form, NReq=829288.
 IVT=       20162 IEndB=       20162 NGot=    33554432 MDV=    33531252
 LenX=    33531252 LenY=    33530370
 Requested convergence on RMS density matrix=1.00D-08 within 128 cycles.
 Requested convergence on MAX density matrix=1.00D-06.
 Requested convergence on             energy=1.00D-06.
 No special actions if energy rises.
 FoFCou: FMM=F IPFlag=           0 FMFlag=           0 FMFlg1=           0
         NFxFlg=           0 DoJE=F BraDBF=F KetDBF=F FulRan=T
         wScrn=  0.000000 ICntrl=     600 IOpCl=  0 I1Cent=           0 NGrid=           0
         NMat0=    1 NMatS0=     91 NMatT0=    0 NMatD0=    1 NMtDS0=    0 NMtDT0=    0
 Petite list used in FoFCou.

 Cycle   1  Pass 1  IDiag  1:
 E= -75.5859615638197    
 DIIS: error= 9.65D-02 at cycle   1 NSaved=   1.
 NSaved= 1 IEnMin= 1 EnMin= -75.5859615638197     IErMin= 1 ErrMin= 9.65D-02
 ErrMax= 9.65D-02  0.00D+00 EMaxC= 1.00D-01 BMatC= 1.82D-01 BMatP= 1.82D-01
 IDIUse=3 WtCom= 3.50D-02 WtEn= 9.65D-01
 Coeff-Com:  0.100D+01
 Coeff-En:   0.100D+01
 Coeff:      0.100D+01
 Gap=     0.084 Goal=   None    Shift=    0.000
 GapD=    0.084 DampG=0.500 DampE=0.500 DampFc=0.2500 IDamp=-1.
 Damping current iteration by 2.50D-01
 RMSDP=4.83D-02 MaxDP=2.71D-01              OVMax= 4.14D-01

 Cycle   2  Pass 1  IDiag  1:
 E= -75.6527112853239     Delta-E=       -0.066749721504 Rises=F Damp=T
 DIIS: error= 4.50D-02 at cycle   2 NSaved=   2.
 NSaved= 2 IEnMin= 2 EnMin= -75.6527112853239     IErMin= 2 ErrMin= 4.50D-02
 ErrMax= 4.50D-02  0.00D+00 EMaxC= 1.00D-01 BMatC= 4.71D-02 BMatP= 1.82D-01
 IDIUse=3 WtCom= 5.50D-01 WtEn= 4.50D-01
 Coeff-Com: -0.867D+00 0.187D+01
 Coeff-En:   0.000D+00 0.100D+01
 Coeff:     -0.477D+00 0.148D+01
 Gap=     0.352 Goal=   None    Shift=    0.000
 RMSDP=1.91D-02 MaxDP=1.22D-01 DE=-6.67D-02 OVMax= 1.84D-01

 Cycle   3  Pass 1  IDiag  1:
 E= -75.7730478063895     Delta-E=       -0.120336521066 Rises=F Damp=F
 DIIS: error= 3.58D-02 at cycle   3 NSaved=   3.
 NSaved= 3 IEnMin= 3 EnMin= -75.7730478063895     IErMin= 3 ErrMin= 3.58D-02
 ErrMax= 3.58D-02  0.00D+00 EMaxC= 1.00D-01 BMatC= 1.49D-02 BMatP= 4.71D-02
 IDIUse=3 WtCom= 6.42D-01 WtEn= 3.58D-01
 Coeff-Com:  0.966D+00-0.130D+01 0.133D+01
 Coeff-En:   0.000D+00 0.000D+00 0.100D+01
 Coeff:      0.620D+00-0.833D+00 0.121D+01
 Gap=     0.429 Goal=   None    Shift=    0.000
 RMSDP=7.35D-03 MaxDP=3.90D-02 DE=-1.20D-01 OVMax= 3.71D-02

 Cycle   4  Pass 1  IDiag  1:
 E= -75.7837613932233     Delta-E=       -0.010713586834 Rises=F Damp=F
 DIIS: error= 6.66D-03 at cycle   4 NSaved=   4.
 NSaved= 4 IEnMin= 4 EnMin= -75.7837613932233     IErMin= 4 ErrMin= 6.66D-03
 ErrMax= 6.66D-03  0.00D+00 EMaxC= 1.00D-01 BMatC= 6.51D-04 BMatP= 1.49D-02
 IDIUse=3 WtCom= 9.33D-01 WtEn= 6.66D-02
 Coeff-Com: -0.123D+00 0.133D+00-0.221D-01 0.101D+01
 Coeff-En:   0.000D+00 0.000D+00 0.000D+00 0.100D+01
 Coeff:     -0.115D+00 0.124D+00-0.206D-01 0.101D+01
 Gap=     0.422 Goal=   None    Shift=    0.000
 RMSDP=1.95D-03 MaxDP=1.28D-02 DE=-1.07D-02 OVMax= 2.33D-02

 Cycle   5  Pass 1  IDiag  1:
 E= -75.7846656306975     Delta-E=       -0.000904237474 Rises=F Damp=F
 DIIS: error= 2.35D-03 at cycle   5 NSaved=   5.
 NSaved= 5 IEnMin= 5 EnMin= -75.7846656306975     IErMin= 5 ErrMin= 2.35D-03
 ErrMax= 2.35D-03  0.00D+00 EMaxC= 1.00D-01 BMatC= 4.96D-05 BMatP= 6.51D-04
 IDIUse=3 WtCom= 9.77D-01 WtEn= 2.35D-02
 Coeff-Com: -0.191D-02 0.103D-01-0.107D+00-0.259D+00 0.136D+01
 Coeff-En:   0.000D+00 0.000D+00 0.000D+00 0.000D+00 0.100D+01
 Coeff:     -0.186D-02 0.100D-01-0.104D+00-0.253D+00 0.135D+01
 Gap=     0.424 Goal=   None    Shift=    0.000
 RMSDP=7.31D-04 MaxDP=3.98D-03 DE=-9.04D-04 OVMax= 3.71D-03

 Cycle   6  Pass 1  IDiag  1:
 E= -75.7847356548363     Delta-E=       -0.000070024139 Rises=F Damp=F
 DIIS: error= 8.97D-05 at cycle   6 NSaved=   6.
 NSaved= 6 IEnMin= 6 EnMin= -75.7847356548363     IErMin= 6 ErrMin= 8.97D-05
 ErrMax= 8.97D-05  0.00D+00 EMaxC= 1.00D-01 BMatC= 2.36D-07 BMatP= 4.96D-05
 IDIUse=1 WtCom= 1.00D+00 WtEn= 0.00D+00
 Coeff-Com:  0.207D-02-0.477D-02 0.374D-01 0.695D-01-0.488D+00 0.138D+01
 Coeff:      0.207D-02-0.477D-02 0.374D-01 0.695D-01-0.488D+00 0.138D+01
 Gap=     0.424 Goal=   None    Shift=    0.000
 RMSDP=8.74D-05 MaxDP=3.83D-04 DE=-7.00D-05 OVMax= 5.89D-04

 Cycle   7  Pass 1  IDiag  1:
 E= -75.7847364003414     Delta-E=       -0.000000745505 Rises=F Damp=F
 DIIS: error= 2.21D-05 at cycle   7 NSaved=   7.
 NSaved= 7 IEnMin= 7 EnMin= -75.7847364003414     IErMin= 7 ErrMin= 2.21D-05
 ErrMax= 2.21D-05  0.00D+00 EMaxC= 1.00D-01 BMatC= 9.67D-09 BMatP= 2.36D-07
 IDIUse=1 WtCom= 1.00D+00 WtEn= 0.00D+00
 Coeff-Com: -0.589D-04 0.715D-03-0.117D-01-0.218D-01 0.166D+00-0.572D+00
 Coeff-Com:  0.144D+01
 Coeff:     -0.589D-04 0.715D-03-0.117D-01-0.218D-01 0.166D+00-0.572D+00
 Coeff:      0.144D+01
 Gap=     0.424 Goal=   None    Shift=    0.000
 RMSDP=1.63D-05 MaxDP=7.88D-05 DE=-7.46D-07 OVMax= 1.59D-04

 Cycle   8  Pass 1  IDiag  1:
 E= -75.7847364430644     Delta-E=       -0.000000042723 Rises=F Damp=F
 DIIS: error= 1.01D-05 at cycle   8 NSaved=   8.
 NSaved= 8 IEnMin= 8 EnMin= -75.7847364430644     IErMin= 8 ErrMin= 1.01D-05
 ErrMax= 1.01D-05  0.00D+00 EMaxC= 1.00D-01 BMatC= 1.60D-09 BMatP= 9.67D-09
 IDIUse=1 WtCom= 1.00D+00 WtEn= 0.00D+00
 Coeff-Com:  0.283D-03-0.700D-03 0.539D-02 0.926D-02-0.775D-01 0.287D+00
 Coeff-Com: -0.101D+01 0.179D+01
 Coeff:      0.283D-03-0.700D-03 0.539D-02 0.926D-02-0.775D-01 0.287D+00
 Coeff:     -0.101D+01 0.179D+01
 Gap=     0.424 Goal=   None    Shift=    0.000
 RMSDP=8.92D-06 MaxDP=3.55D-05 DE=-4.27D-08 OVMax= 9.60D-05

 Cycle   9  Pass 1  IDiag  1:
 E= -75.7847364523460     Delta-E=       -0.000000009282 Rises=F Damp=F
 DIIS: error= 2.96D-06 at cycle   9 NSaved=   9.
 NSaved= 9 IEnMin= 9 EnMin= -75.7847364523460     IErMin= 9 ErrMin= 2.96D-06
 ErrMax= 2.96D-06  0.00D+00 EMaxC= 1.00D-01 BMatC= 1.29D-10 BMatP= 1.60D-09
 IDIUse=1 WtCom= 1.00D+00 WtEn= 0.00D+00
 Coeff-Com: -0.222D-04 0.975D-04-0.901D-03-0.140D-02 0.164D-01-0.742D-01
 Coeff-Com:  0.379D+00-0.104D+01 0.172D+01
 Coeff:     -0.222D-04 0.975D-04-0.901D-03-0.140D-02 0.164D-01-0.742D-01
 Coeff:      0.379D+00-0.104D+01 0.172D+01
 Gap=     0.424 Goal=   None    Shift=    0.000
 RMSDP=3.43D-06 MaxDP=1.20D-05 DE=-9.28D-09 OVMax= 3.72D-05

 Cycle  10  Pass 1  IDiag  1:
 E= -75.7847364532040     Delta-E=       -0.000000000858 Rises=F Damp=F
 DIIS: error= 7.87D-07 at cycle  10 NSaved=  10.
 NSaved=10 IEnMin=10 EnMin= -75.7847364532040     IErMin=10 ErrMin= 7.87D-07
 ErrMax= 7.87D-07  0.00D+00 EMaxC= 1.00D-01 BMatC= 3.64D-12 BMatP= 1.29D-10
 IDIUse=1 WtCom= 1.00D+00 WtEn= 0.00D+00
 Coeff-Com:  0.288D-06-0.316D-05-0.481D-04-0.166D-03-0.563D-03 0.700D-02
 Coeff-Com: -0.674D-01 0.242D+00-0.535D+00 0.135D+01
 Coeff:      0.288D-06-0.316D-05-0.481D-04-0.166D-03-0.563D-03 0.700D-02
 Coeff:     -0.674D-01 0.242D+00-0.535D+00 0.135D+01
 Gap=     0.424 Goal=   None    Shift=    0.000
 RMSDP=3.13D-07 MaxDP=1.63D-06 DE=-8.58D-10 OVMax= 2.37D-06

 Cycle  11  Pass 1  IDiag  1:
 E= -75.7847364532121     Delta-E=       -0.000000000008 Rises=F Damp=F
 DIIS: error= 4.33D-08 at cycle  11 NSaved=  11.
 NSaved=11 IEnMin=11 EnMin= -75.7847364532121     IErMin=11 ErrMin= 4.33D-08
 ErrMax= 4.33D-08  0.00D+00 EMaxC= 1.00D-01 BMatC= 3.39D-14 BMatP= 3.64D-12
 IDIUse=1 WtCom= 1.00D+00 WtEn= 0.00D+00
 Coeff-Com: -0.148D-05 0.261D-05 0.110D-04 0.394D-04 0.123D-03-0.153D-02
 Coeff-Com:  0.148D-01-0.523D-01 0.119D+00-0.329D+00 0.125D+01
 Coeff:     -0.148D-05 0.261D-05 0.110D-04 0.394D-04 0.123D-03-0.153D-02
 Coeff:      0.148D-01-0.523D-01 0.119D+00-0.329D+00 0.125D+01
 Gap=     0.424 Goal=   None    Shift=    0.000
 RMSDP=1.82D-08 MaxDP=7.28D-08 DE=-8.07D-12 OVMax= 1.24D-07

 Cycle  12  Pass 1  IDiag  1:
 E= -75.7847364532121     Delta-E=        0.000000000000 Rises=F Damp=F
 DIIS: error= 7.01D-09 at cycle  12 NSaved=  12.
 NSaved=12 IEnMin=12 EnMin= -75.7847364532121     IErMin=12 ErrMin= 7.01D-09
 ErrMax= 7.01D-09  0.00D+00 EMaxC= 1.00D-01 BMatC= 6.57D-16 BMatP= 3.39D-14
 IDIUse=1 WtCom= 1.00D+00 WtEn= 0.00D+00
 Coeff-Com:  0.176D-06-0.164D-06-0.389D-05-0.954D-05 0.280D-04 0.169D-04
 Coeff-Com: -0.102D-02 0.431D-02-0.103D-01 0.364D-01-0.257D+00 0.123D+01
 Coeff:      0.176D-06-0.164D-06-0.389D-05-0.954D-05 0.280D-04 0.169D-04
 Coeff:     -0.102D-02 0.431D-02-0.103D-01 0.364D-01-0.257D+00 0.123D+01
 Gap=     0.424 Goal=   None    Shift=    0.000
 RMSDP=4.50D-09 MaxDP=1.57D-08 DE=-8.53D-14 OVMax= 4.86D-08

 SCF Done:  E(RHF) =  -75.7847364532     A.U. after   12 cycles
            NFock= 12  Conv=0.45D-08     -V/T= 2.0053
 KE= 7.538699714682D+01 PE=-1.937240636928D+02 EE= 3.571130320964D+01
 Leave Link  502 at Tue Mar 17 13:43:25 2020, MaxMem=    33554432 cpu:         0.0
 (Enter /usr/local/gaussian09d01/g09/l601.exe)
 Copying SCF densities to generalized density rwf, IOpCl= 0 IROHF=0.

 **********************************************************************

            Population analysis using the SCF density.

 **********************************************************************

 Orbital symmetries:
       Occupied  (A') (A') (A') (A") (A')
       Virtual   (A') (A') (A') (A') (A") (A') (A') (A')
 The electronic state is 1-A'.
 Alpha  occ. eigenvalues --  -20.61575  -1.28766  -0.61970  -0.50402  -0.43010
 Alpha virt. eigenvalues --   -0.00599   0.24488   0.98056   1.12506   1.16122
 Alpha virt. eigenvalues --    1.22129   1.28809   1.56227
          Condensed to atoms (all electrons):
               1          2          3
     1  O    8.203983   0.212820   0.164442
     2  H    0.212820   0.390683  -0.002919
     3  H    0.164442  -0.002919   0.656647
 Mulliken charges:
               1
     1  O   -0.581245
     2  H    0.399416
     3  H    0.181830
 Sum of Mulliken charges =   0.00000
 Mulliken charges with hydrogens summed into heavy atoms:
               1
     1  O    0.000000
 Electronic spatial extent (au):  <R**2>=             27.5630
 Charge=              0.0000 electrons
 Dipole moment (field-independent basis, Debye):
    X=              1.1169    Y=             -2.2261    Z=              0.0000  Tot=              2.4906
 Quadrupole moment (field-independent basis, Debye-Ang):
   XX=             -4.4848   YY=             -4.6919   ZZ=             -7.8441
   XY=              1.7647   XZ=              0.0000   YZ=              0.0000
 Traceless Quadrupole moment (field-independent basis, Debye-Ang):
   XX=              1.1888   YY=              0.9816   ZZ=             -2.1705
   XY=              1.7647   XZ=              0.0000   YZ=              0.0000
 Octapole moment (field-independent basis, Debye-Ang**2):
  XXX=              2.4074  YYY=             -2.7803  ZZZ=              0.0000  XYY=             -2.0282
  XXY=             -1.2780  XXZ=              0.0000  XZZ=              0.6985  YZZ=              0.4328
  YYZ=              0.0000  XYZ=              0.0000
 Hexadecapole moment (field-independent basis, Debye-Ang**3):
 XXXX=            -10.0255 YYYY=            -12.6376 ZZZZ=             -6.0523 XXXY=             -2.3186
 XXXZ=              0.0000 YYYX=              0.5108 YYYZ=              0.0000 ZZZX=              0.0000
 ZZZY=              0.0000 XXYY=             -2.5642 XXZZ=             -3.1240 YYZZ=             -4.3128
 XXYZ=              0.0000 YYXZ=              0.0000 ZZXY=             -1.3121
 N-N= 6.841026883107D+00 E-N=-1.937240635141D+02  KE= 7.538699714682D+01
 Symmetry A'   KE= 7.064469950471D+01
 Symmetry A"   KE= 4.742297642113D+00
 No NMR shielding tensors so no spin-rotation constants.
 Leave Link  601 at Tue Mar 17 13:43:25 2020, MaxMem=    33554432 cpu:         0.1
 (Enter /usr/local/gaussian09d01/g09/l9999.exe)
 1\1\GINC-KARURA\SP\RHF\6-31G\H2O1\RTAKE\17-Mar-2020\0\\#p HF/6-31G\\ch
 k calc\\0,1\O,0,0.049680185,0.327873623,-3.437830032\H,0,0.049680185,1
 .087210623,-2.841787032\H,0,0.049680185,-1.166684615,-2.264673745\\Ver
 sion=ES64L-G09RevD.01\State=1-A'\HF=-75.7847365\RMSD=4.496e-09\Dipole=
 0.,0.0696702,0.9773878\Quadrupole=-1.6136971,1.7910423,-0.1773452,0.,0
 .,-0.8709895\PG=CS [SG(H2O1)]\\@


 A SCIENTIST IS SOMEONE WHOSE CURIOSITY SURVIVES
 EDUCATION'S ASSAULTS ON IT.
                          - SIR HERMANN BONDI
 Job cpu time:       0 days  0 hours  0 minutes  0.4 seconds.
 File lengths (MBytes):  RWF=      5 Int=      0 D2E=      0 Chk=      1 Scr=      1
 Normal termination of Gaussian 09 at Tue Mar 17 13:43:25 2020.
