 Entering Gaussian System, Link 0=g09
 Input=./h2o_o1h3_07.gjf
 Output=./h2o_o1h3_07.log
 Initial command:
 /usr/local/gaussian09d01/g09/l1.exe "/scr/Gau-18109.inp" -scrdir="/scr/"
 Entering Link 1 = /usr/local/gaussian09d01/g09/l1.exe PID=     18110.
  
 Copyright (c) 1988,1990,1992,1993,1995,1998,2003,2009,2013,
            Gaussian, Inc.  All Rights Reserved.
  
 This is part of the Gaussian(R) 09 program.  It is based on
 the Gaussian(R) 03 system (copyright 2003, Gaussian, Inc.),
 the Gaussian(R) 98 system (copyright 1998, Gaussian, Inc.),
 the Gaussian(R) 94 system (copyright 1995, Gaussian, Inc.),
 the Gaussian 92(TM) system (copyright 1992, Gaussian, Inc.),
 the Gaussian 90(TM) system (copyright 1990, Gaussian, Inc.),
 the Gaussian 88(TM) system (copyright 1988, Gaussian, Inc.),
 the Gaussian 86(TM) system (copyright 1986, Carnegie Mellon
 University), and the Gaussian 82(TM) system (copyright 1983,
 Carnegie Mellon University). Gaussian is a federally registered
 trademark of Gaussian, Inc.
  
 This software contains proprietary and confidential information,
 including trade secrets, belonging to Gaussian, Inc.
  
 This software is provided under written license and may be
 used, copied, transmitted, or stored only in accord with that
 written license.
  
 The following legend is applicable only to US Government
 contracts under FAR:
  
                    RESTRICTED RIGHTS LEGEND
  
 Use, reproduction and disclosure by the US Government is
 subject to restrictions as set forth in subparagraphs (a)
 and (c) of the Commercial Computer Software - Restricted
 Rights clause in FAR 52.227-19.
  
 Gaussian, Inc.
 340 Quinnipiac St., Bldg. 40, Wallingford CT 06492
  
  
 ---------------------------------------------------------------
 Warning -- This program may not be used in any manner that
 competes with the business of Gaussian, Inc. or will provide
 assistance to any competitor of Gaussian, Inc.  The licensee
 of this program is prohibited from giving any competitor of
 Gaussian, Inc. access to this program.  By using this program,
 the user acknowledges that Gaussian, Inc. is engaged in the
 business of creating and licensing software in the field of
 computational chemistry and represents and warrants to the
 licensee that it is not a competitor of Gaussian, Inc. and that
 it will not use this program in any manner prohibited above.
 ---------------------------------------------------------------
  

 Cite this work as:
 Gaussian 09, Revision D.01,
 M. J. Frisch, G. W. Trucks, H. B. Schlegel, G. E. Scuseria, 
 M. A. Robb, J. R. Cheeseman, G. Scalmani, V. Barone, B. Mennucci, 
 G. A. Petersson, H. Nakatsuji, M. Caricato, X. Li, H. P. Hratchian, 
 A. F. Izmaylov, J. Bloino, G. Zheng, J. L. Sonnenberg, M. Hada, 
 M. Ehara, K. Toyota, R. Fukuda, J. Hasegawa, M. Ishida, T. Nakajima, 
 Y. Honda, O. Kitao, H. Nakai, T. Vreven, J. A. Montgomery, Jr., 
 J. E. Peralta, F. Ogliaro, M. Bearpark, J. J. Heyd, E. Brothers, 
 K. N. Kudin, V. N. Staroverov, T. Keith, R. Kobayashi, J. Normand, 
 K. Raghavachari, A. Rendell, J. C. Burant, S. S. Iyengar, J. Tomasi, 
 M. Cossi, N. Rega, J. M. Millam, M. Klene, J. E. Knox, J. B. Cross, 
 V. Bakken, C. Adamo, J. Jaramillo, R. Gomperts, R. E. Stratmann, 
 O. Yazyev, A. J. Austin, R. Cammi, C. Pomelli, J. W. Ochterski, 
 R. L. Martin, K. Morokuma, V. G. Zakrzewski, G. A. Voth, 
 P. Salvador, J. J. Dannenberg, S. Dapprich, A. D. Daniels, 
 O. Farkas, J. B. Foresman, J. V. Ortiz, J. Cioslowski, 
 and D. J. Fox, Gaussian, Inc., Wallingford CT, 2013.
 
 ******************************************
 Gaussian 09:  ES64L-G09RevD.01 24-Apr-2013
                17-Mar-2020 
 ******************************************
 -----------
 #p HF/6-31G
 -----------
 1/38=1/1;
 2/12=2,17=6,18=5,40=1/2;
 3/5=1,6=6,11=9,16=1,25=1,30=1/1,2,3;
 4//1;
 5/5=2,38=5/2;
 6/7=2,8=2,9=2,10=2,28=1/1;
 99/5=1,9=1/99;
 Leave Link    1 at Tue Mar 17 13:43:20 2020, MaxMem=           0 cpu:         0.0
 (Enter /usr/local/gaussian09d01/g09/l101.exe)
 --------
 chk calc
 --------
 Symbolic Z-matrix:
 Charge =  0 Multiplicity = 1
 O                     0.04968  -0.14409  -3.06736 
 H                     0.04968   0.61524  -2.47132 
 H                     0.04968  -0.69472  -2.63514 
 
 NAtoms=      3 NQM=        3 NQMF=       0 NMMI=      0 NMMIF=      0
                NMic=       0 NMicF=      0.
                    Isotopes and Nuclear Properties:
 (Nuclear quadrupole moments (NQMom) in fm**2, nuclear magnetic moments (NMagM)
  in nuclear magnetons)

  Atom         1           2           3
 IAtWgt=          16           1           1
 AtmWgt=  15.9949146   1.0078250   1.0078250
 NucSpn=           0           1           1
 AtZEff=   0.0000000   0.0000000   0.0000000
 NQMom=    0.0000000   0.0000000   0.0000000
 NMagM=    0.0000000   2.7928460   2.7928460
 AtZNuc=   8.0000000   1.0000000   1.0000000
 Leave Link  101 at Tue Mar 17 13:43:20 2020, MaxMem=    33554432 cpu:         0.0
 (Enter /usr/local/gaussian09d01/g09/l202.exe)
                          Input orientation:                          
 ---------------------------------------------------------------------
 Center     Atomic      Atomic             Coordinates (Angstroms)
 Number     Number       Type             X           Y           Z
 ---------------------------------------------------------------------
      1          8           0        0.049680   -0.144092   -3.067360
      2          1           0        0.049680    0.615245   -2.471317
      3          1           0        0.049680   -0.694719   -2.635144
 ---------------------------------------------------------------------
                    Distance matrix (angstroms):
                    1          2          3
     1  O    0.000000
     2  H    0.965329   0.000000
     3  H    0.700000   1.320168   0.000000
 Stoichiometry    H2O
 Framework group  CS[SG(H2O)]
 Deg. of freedom     3
 Full point group                 CS      NOp   2
 Largest Abelian subgroup         CS      NOp   2
 Largest concise Abelian subgroup C1      NOp   1
                         Standard orientation:                         
 ---------------------------------------------------------------------
 Center     Atomic      Atomic             Coordinates (Angstroms)
 Number     Number       Type             X           Y           Z
 ---------------------------------------------------------------------
      1          8           0        0.000000    0.104923    0.000000
      2          1           0        0.625599   -0.630255    0.000000
      3          1           0       -0.625599   -0.209126    0.000000
 ---------------------------------------------------------------------
 Rotational constants (GHZ):   1261.8677408    520.7939521    368.6471137
 Leave Link  202 at Tue Mar 17 13:43:20 2020, MaxMem=    33554432 cpu:         0.0
 (Enter /usr/local/gaussian09d01/g09/l301.exe)
 Standard basis: 6-31G (6D, 7F)
 Ernie: Thresh=  0.10000D-02 Tol=  0.10000D-05 Strict=F.
 There are    11 symmetry adapted cartesian basis functions of A'  symmetry.
 There are     2 symmetry adapted cartesian basis functions of A"  symmetry.
 There are    11 symmetry adapted basis functions of A'  symmetry.
 There are     2 symmetry adapted basis functions of A"  symmetry.
    13 basis functions,    30 primitive gaussians,    13 cartesian basis functions
     5 alpha electrons        5 beta electrons
       nuclear repulsion energy        10.8340467296 Hartrees.
 IExCor=    0 DFT=F Ex=HF Corr=None ExCW=0 ScaHFX=  1.000000
 ScaDFX=  1.000000  1.000000  1.000000  1.000000 ScalE2=  1.000000  1.000000
 IRadAn=      0 IRanWt=     -1 IRanGd=            0 ICorTp=0 IEmpDi=  4
 NAtoms=    3 NActive=    3 NUniq=    3 SFac= 1.00D+00 NAtFMM=   60 NAOKFM=F Big=F
 Integral buffers will be    131072 words long.
 Raffenetti 1 integral format.
 Two-electron integral symmetry is turned on.
 Leave Link  301 at Tue Mar 17 13:43:20 2020, MaxMem=    33554432 cpu:         0.0
 (Enter /usr/local/gaussian09d01/g09/l302.exe)
 NPDir=0 NMtPBC=     1 NCelOv=     1 NCel=       1 NClECP=     1 NCelD=      1
         NCelK=      1 NCelE2=     1 NClLst=     1 CellRange=     0.0.
 One-electron integrals computed using PRISM.
 NBasis=    13 RedAO= T EigKep=  6.26D-02  NBF=    11     2
 NBsUse=    13 1.00D-06 EigRej= -1.00D+00 NBFU=    11     2
 Leave Link  302 at Tue Mar 17 13:43:20 2020, MaxMem=    33554432 cpu:         0.1
 (Enter /usr/local/gaussian09d01/g09/l303.exe)
 DipDrv:  MaxL=1.
 Leave Link  303 at Tue Mar 17 13:43:20 2020, MaxMem=    33554432 cpu:         0.0
 (Enter /usr/local/gaussian09d01/g09/l401.exe)
 ExpMin= 1.61D-01 ExpMax= 5.48D+03 ExpMxC= 8.25D+02 IAcc=1 IRadAn=         1 AccDes= 0.00D+00
 Harris functional with IExCor=  205 and IRadAn=       1 diagonalized for initial guess.
 HarFok:  IExCor=  205 AccDes= 0.00D+00 IRadAn=         1 IDoV= 1 UseB2=F ITyADJ=14
 ICtDFT=  3500011 ScaDFX=  1.000000  1.000000  1.000000  1.000000
 FoFCou: FMM=F IPFlag=           0 FMFlag=      100000 FMFlg1=           0
         NFxFlg=           0 DoJE=T BraDBF=F KetDBF=T FulRan=T
         wScrn=  0.000000 ICntrl=     500 IOpCl=  0 I1Cent=   200000004 NGrid=           0
         NMat0=    1 NMatS0=      1 NMatT0=    0 NMatD0=    1 NMtDS0=    0 NMtDT0=    0
 Petite list used in FoFCou.
 Harris En= -75.9749135739802    
 JPrj=0 DoOrth=F DoCkMO=F.
 Initial guess orbital symmetries:
       Occupied  (A') (A') (A') (A') (A")
       Virtual   (A') (A') (A') (A") (A') (A') (A') (A')
 The electronic state of the initial guess is 1-A'.
 Leave Link  401 at Tue Mar 17 13:43:20 2020, MaxMem=    33554432 cpu:         0.1
 (Enter /usr/local/gaussian09d01/g09/l502.exe)
 Closed shell SCF:
 Using DIIS extrapolation, IDIIS=  1040.
 Integral symmetry usage will be decided dynamically.
 Keep R1 ints in memory in symmetry-blocked form, NReq=829444.
 IVT=       20162 IEndB=       20162 NGot=    33554432 MDV=    33531252
 LenX=    33531252 LenY=    33530370
 Requested convergence on RMS density matrix=1.00D-08 within 128 cycles.
 Requested convergence on MAX density matrix=1.00D-06.
 Requested convergence on             energy=1.00D-06.
 No special actions if energy rises.
 FoFCou: FMM=F IPFlag=           0 FMFlag=           0 FMFlg1=           0
         NFxFlg=           0 DoJE=F BraDBF=F KetDBF=F FulRan=T
         wScrn=  0.000000 ICntrl=     600 IOpCl=  0 I1Cent=           0 NGrid=           0
         NMat0=    1 NMatS0=     91 NMatT0=    0 NMatD0=    1 NMtDS0=    0 NMtDT0=    0
 Petite list used in FoFCou.

 Cycle   1  Pass 1  IDiag  1:
 E= -75.7323685191733    
 DIIS: error= 9.82D-02 at cycle   1 NSaved=   1.
 NSaved= 1 IEnMin= 1 EnMin= -75.7323685191733     IErMin= 1 ErrMin= 9.82D-02
 ErrMax= 9.82D-02  0.00D+00 EMaxC= 1.00D-01 BMatC= 1.69D-01 BMatP= 1.69D-01
 IDIUse=3 WtCom= 1.77D-02 WtEn= 9.82D-01
 Coeff-Com:  0.100D+01
 Coeff-En:   0.100D+01
 Coeff:      0.100D+01
 Gap=     0.575 Goal=   None    Shift=    0.000
 GapD=    0.575 DampG=2.000 DampE=0.500 DampFc=1.0000 IDamp=-1.
 RMSDP=2.75D-02 MaxDP=1.51D-01              OVMax= 1.24D-01

 Cycle   2  Pass 1  IDiag  1:
 E= -75.8210486389456     Delta-E=       -0.088680119772 Rises=F Damp=F
 DIIS: error= 5.69D-02 at cycle   2 NSaved=   2.
 NSaved= 2 IEnMin= 2 EnMin= -75.8210486389456     IErMin= 2 ErrMin= 5.69D-02
 ErrMax= 5.69D-02  0.00D+00 EMaxC= 1.00D-01 BMatC= 4.90D-02 BMatP= 1.69D-01
 IDIUse=3 WtCom= 4.31D-01 WtEn= 5.69D-01
 Coeff-Com:  0.342D+00 0.658D+00
 Coeff-En:   0.160D-01 0.984D+00
 Coeff:      0.156D+00 0.844D+00
 Gap=     0.765 Goal=   None    Shift=    0.000
 RMSDP=1.27D-02 MaxDP=6.97D-02 DE=-8.87D-02 OVMax= 3.91D-02

 Cycle   3  Pass 1  IDiag  1:
 E= -75.8511839604802     Delta-E=       -0.030135321535 Rises=F Damp=F
 DIIS: error= 1.50D-02 at cycle   3 NSaved=   3.
 NSaved= 3 IEnMin= 3 EnMin= -75.8511839604802     IErMin= 3 ErrMin= 1.50D-02
 ErrMax= 1.50D-02  0.00D+00 EMaxC= 1.00D-01 BMatC= 3.99D-03 BMatP= 4.90D-02
 IDIUse=3 WtCom= 8.50D-01 WtEn= 1.50D-01
 Coeff-Com: -0.346D-01 0.182D+00 0.852D+00
 Coeff-En:   0.000D+00 0.000D+00 0.100D+01
 Coeff:     -0.294D-01 0.155D+00 0.874D+00
 Gap=     0.725 Goal=   None    Shift=    0.000
 RMSDP=3.04D-03 MaxDP=1.67D-02 DE=-3.01D-02 OVMax= 1.19D-02

 Cycle   4  Pass 1  IDiag  1:
 E= -75.8540114383423     Delta-E=       -0.002827477862 Rises=F Damp=F
 DIIS: error= 1.73D-03 at cycle   4 NSaved=   4.
 NSaved= 4 IEnMin= 4 EnMin= -75.8540114383423     IErMin= 4 ErrMin= 1.73D-03
 ErrMax= 1.73D-03  0.00D+00 EMaxC= 1.00D-01 BMatC= 3.40D-05 BMatP= 3.99D-03
 IDIUse=3 WtCom= 9.83D-01 WtEn= 1.73D-02
 Coeff-Com:  0.823D-02-0.871D-01-0.243D+00 0.132D+01
 Coeff-En:   0.000D+00 0.000D+00 0.000D+00 0.100D+01
 Coeff:      0.809D-02-0.856D-01-0.239D+00 0.132D+01
 Gap=     0.730 Goal=   None    Shift=    0.000
 RMSDP=3.64D-04 MaxDP=2.13D-03 DE=-2.83D-03 OVMax= 1.43D-03

 Cycle   5  Pass 1  IDiag  1:
 E= -75.8540414445657     Delta-E=       -0.000030006223 Rises=F Damp=F
 DIIS: error= 1.20D-04 at cycle   5 NSaved=   5.
 NSaved= 5 IEnMin= 5 EnMin= -75.8540414445657     IErMin= 5 ErrMin= 1.20D-04
 ErrMax= 1.20D-04  0.00D+00 EMaxC= 1.00D-01 BMatC= 1.66D-07 BMatP= 3.40D-05
 IDIUse=3 WtCom= 9.99D-01 WtEn= 1.20D-03
 Coeff-Com: -0.180D-02 0.254D-01 0.606D-01-0.490D+00 0.141D+01
 Coeff-En:   0.000D+00 0.000D+00 0.000D+00 0.000D+00 0.100D+01
 Coeff:     -0.180D-02 0.254D-01 0.605D-01-0.490D+00 0.141D+01
 Gap=     0.730 Goal=   None    Shift=    0.000
 RMSDP=7.72D-05 MaxDP=3.39D-04 DE=-3.00D-05 OVMax= 4.98D-04

 Cycle   6  Pass 1  IDiag  1:
 E= -75.8540418997758     Delta-E=       -0.000000455210 Rises=F Damp=F
 DIIS: error= 1.44D-05 at cycle   6 NSaved=   6.
 NSaved= 6 IEnMin= 6 EnMin= -75.8540418997758     IErMin= 6 ErrMin= 1.44D-05
 ErrMax= 1.44D-05  0.00D+00 EMaxC= 1.00D-01 BMatC= 2.52D-09 BMatP= 1.66D-07
 IDIUse=1 WtCom= 1.00D+00 WtEn= 0.00D+00
 Coeff-Com:  0.365D-03-0.619D-02-0.135D-01 0.134D+00-0.462D+00 0.135D+01
 Coeff:      0.365D-03-0.619D-02-0.135D-01 0.134D+00-0.462D+00 0.135D+01
 Gap=     0.731 Goal=   None    Shift=    0.000
 RMSDP=8.07D-06 MaxDP=3.53D-05 DE=-4.55D-07 OVMax= 4.43D-05

 Cycle   7  Pass 1  IDiag  1:
 E= -75.8540419055373     Delta-E=       -0.000000005762 Rises=F Damp=F
 DIIS: error= 2.42D-06 at cycle   7 NSaved=   7.
 NSaved= 7 IEnMin= 7 EnMin= -75.8540419055373     IErMin= 7 ErrMin= 2.42D-06
 ErrMax= 2.42D-06  0.00D+00 EMaxC= 1.00D-01 BMatC= 9.49D-11 BMatP= 2.52D-09
 IDIUse=1 WtCom= 1.00D+00 WtEn= 0.00D+00
 Coeff-Com: -0.476D-05 0.519D-03 0.703D-03-0.167D-01 0.751D-01-0.388D+00
 Coeff-Com:  0.133D+01
 Coeff:     -0.476D-05 0.519D-03 0.703D-03-0.167D-01 0.751D-01-0.388D+00
 Coeff:      0.133D+01
 Gap=     0.731 Goal=   None    Shift=    0.000
 RMSDP=1.42D-06 MaxDP=6.36D-06 DE=-5.76D-09 OVMax= 7.38D-06

 Cycle   8  Pass 1  IDiag  1:
 E= -75.8540419057426     Delta-E=       -0.000000000205 Rises=F Damp=F
 DIIS: error= 2.49D-07 at cycle   8 NSaved=   8.
 NSaved= 8 IEnMin= 8 EnMin= -75.8540419057426     IErMin= 8 ErrMin= 2.49D-07
 ErrMax= 2.49D-07  0.00D+00 EMaxC= 1.00D-01 BMatC= 1.04D-12 BMatP= 9.49D-11
 IDIUse=1 WtCom= 1.00D+00 WtEn= 0.00D+00
 Coeff-Com: -0.872D-05 0.253D-04 0.174D-03 0.877D-03-0.723D-02 0.592D-01
 Coeff-Com: -0.292D+00 0.124D+01
 Coeff:     -0.872D-05 0.253D-04 0.174D-03 0.877D-03-0.723D-02 0.592D-01
 Coeff:     -0.292D+00 0.124D+01
 Gap=     0.731 Goal=   None    Shift=    0.000
 RMSDP=1.54D-07 MaxDP=6.04D-07 DE=-2.05D-10 OVMax= 7.23D-07

 Cycle   9  Pass 1  IDiag  1:
 E= -75.8540419057449     Delta-E=       -0.000000000002 Rises=F Damp=F
 DIIS: error= 3.98D-08 at cycle   9 NSaved=   9.
 NSaved= 9 IEnMin= 9 EnMin= -75.8540419057449     IErMin= 9 ErrMin= 3.98D-08
 ErrMax= 3.98D-08  0.00D+00 EMaxC= 1.00D-01 BMatC= 1.84D-14 BMatP= 1.04D-12
 IDIUse=1 WtCom= 1.00D+00 WtEn= 0.00D+00
 Coeff-Com:  0.202D-05-0.305D-05-0.365D-04-0.294D-03 0.201D-02-0.150D-01
 Coeff-Com:  0.739D-01-0.386D+00 0.133D+01
 Coeff:      0.202D-05-0.305D-05-0.365D-04-0.294D-03 0.201D-02-0.150D-01
 Coeff:      0.739D-01-0.386D+00 0.133D+01
 Gap=     0.731 Goal=   None    Shift=    0.000
 RMSDP=3.32D-08 MaxDP=1.47D-07 DE=-2.32D-12 OVMax= 1.72D-07

 Cycle  10  Pass 1  IDiag  1:
 E= -75.8540419057450     Delta-E=        0.000000000000 Rises=F Damp=F
 DIIS: error= 4.08D-09 at cycle  10 NSaved=  10.
 NSaved=10 IEnMin=10 EnMin= -75.8540419057450     IErMin=10 ErrMin= 4.08D-09
 ErrMax= 4.08D-09  0.00D+00 EMaxC= 1.00D-01 BMatC= 2.70D-16 BMatP= 1.84D-14
 IDIUse=1 WtCom= 1.00D+00 WtEn= 0.00D+00
 Coeff-Com: -0.235D-06 0.388D-06 0.421D-05 0.308D-04-0.215D-03 0.158D-02
 Coeff-Com: -0.855D-02 0.512D-01-0.260D+00 0.122D+01
 Coeff:     -0.235D-06 0.388D-06 0.421D-05 0.308D-04-0.215D-03 0.158D-02
 Coeff:     -0.855D-02 0.512D-01-0.260D+00 0.122D+01
 Gap=     0.731 Goal=   None    Shift=    0.000
 RMSDP=4.28D-09 MaxDP=1.76D-08 DE=-8.53D-14 OVMax= 2.31D-08

 SCF Done:  E(RHF) =  -75.8540419057     A.U. after   10 cycles
            NFock= 10  Conv=0.43D-08     -V/T= 1.9879
 KE= 7.677980010488D+01 PE=-2.024120082843D+02 EE= 3.894411954400D+01
 Leave Link  502 at Tue Mar 17 13:43:20 2020, MaxMem=    33554432 cpu:         0.1
 (Enter /usr/local/gaussian09d01/g09/l601.exe)
 Copying SCF densities to generalized density rwf, IOpCl= 0 IROHF=0.

 **********************************************************************

            Population analysis using the SCF density.

 **********************************************************************

 Orbital symmetries:
       Occupied  (A') (A') (A') (A') (A")
       Virtual   (A') (A') (A') (A") (A') (A') (A') (A')
 The electronic state is 1-A'.
 Alpha  occ. eigenvalues --  -20.53760  -1.46060  -0.78276  -0.57805  -0.51297
 Alpha virt. eigenvalues --    0.21754   0.32704   1.04452   1.16129   1.18336
 Alpha virt. eigenvalues --    1.31851   1.70246   1.75467
          Condensed to atoms (all electrons):
               1          2          3
     1  O    8.077193   0.296514   0.305426
     2  H    0.296514   0.365582  -0.049592
     3  H    0.305426  -0.049592   0.452530
 Mulliken charges:
               1
     1  O   -0.679132
     2  H    0.387495
     3  H    0.291637
 Sum of Mulliken charges =   0.00000
 Mulliken charges with hydrogens summed into heavy atoms:
               1
     1  O    0.000000
 Electronic spatial extent (au):  <R**2>=             17.5431
 Charge=              0.0000 electrons
 Dipole moment (field-independent basis, Debye):
    X=             -0.3466    Y=             -2.5586    Z=              0.0000  Tot=              2.5820
 Quadrupole moment (field-independent basis, Debye-Ang):
   XX=             -4.5579   YY=             -5.8304   ZZ=             -6.9071
   XY=             -0.5884   XZ=              0.0000   YZ=              0.0000
 Traceless Quadrupole moment (field-independent basis, Debye-Ang):
   XX=              1.2072   YY=             -0.0652   ZZ=             -1.1420
   XY=             -0.5884   XZ=              0.0000   YZ=              0.0000
 Octapole moment (field-independent basis, Debye-Ang**2):
  XXX=             -0.4014  YYY=             -1.8110  ZZZ=              0.0000  XYY=              0.2223
  XXY=             -0.9237  XXZ=              0.0000  XZZ=             -0.1995  YZZ=             -0.4803
  YYZ=              0.0000  XYZ=              0.0000
 Hexadecapole moment (field-independent basis, Debye-Ang**3):
 XXXX=             -4.7535 YYYY=             -5.6021 ZZZZ=             -4.8784 XXXY=              0.1021
 XXXZ=              0.0000 YYYX=              0.0061 YYYZ=              0.0000 ZZZX=              0.0000
 ZZZY=              0.0000 XXYY=             -1.4886 XXZZ=             -1.7009 YYZZ=             -1.8170
 XXYZ=              0.0000 YYXZ=              0.0000 ZZXY=              0.1191
 N-N= 1.083404672964D+01 E-N=-2.024120083130D+02  KE= 7.677980010488D+01
 Symmetry A'   KE= 7.218685316052D+01
 Symmetry A"   KE= 4.592946944369D+00
 No NMR shielding tensors so no spin-rotation constants.
 Leave Link  601 at Tue Mar 17 13:43:20 2020, MaxMem=    33554432 cpu:         0.1
 (Enter /usr/local/gaussian09d01/g09/l9999.exe)
 1\1\GINC-KARURA\SP\RHF\6-31G\H2O1\RTAKE\17-Mar-2020\0\\#p HF/6-31G\\ch
 k calc\\0,1\O,0,0.049680185,-0.144092136,-3.067359626\H,0,0.049680185,
 0.615244864,-2.471316626\H,0,0.049680185,-0.694718856,-2.635144152\\Ve
 rsion=ES64L-G09RevD.01\State=1-A'\HF=-75.8540419\RMSD=4.282e-09\Dipole
 =0.,0.066601,1.0136439\Quadrupole=-0.8490125,1.030635,-0.1816224,0.,0.
 ,0.2183964\PG=CS [SG(H2O1)]\\@


 ... THE UNIVERSE IS NOT ONLY QUEERER THAN WE SUPPOSE,
 BUT QUEERER THAN WE CAN SUPPOSE ... 

                                   -- J. B. S. HALDANE
 Job cpu time:       0 days  0 hours  0 minutes  0.4 seconds.
 File lengths (MBytes):  RWF=      5 Int=      0 D2E=      0 Chk=      1 Scr=      1
 Normal termination of Gaussian 09 at Tue Mar 17 13:43:20 2020.
