 Entering Gaussian System, Link 0=g09
 Input=./h2o_o1h3_16.gjf
 Output=./h2o_o1h3_16.log
 Initial command:
 /usr/local/gaussian09d01/g09/l1.exe "/scr/Gau-18131.inp" -scrdir="/scr/"
 Entering Link 1 = /usr/local/gaussian09d01/g09/l1.exe PID=     18132.
  
 Copyright (c) 1988,1990,1992,1993,1995,1998,2003,2009,2013,
            Gaussian, Inc.  All Rights Reserved.
  
 This is part of the Gaussian(R) 09 program.  It is based on
 the Gaussian(R) 03 system (copyright 2003, Gaussian, Inc.),
 the Gaussian(R) 98 system (copyright 1998, Gaussian, Inc.),
 the Gaussian(R) 94 system (copyright 1995, Gaussian, Inc.),
 the Gaussian 92(TM) system (copyright 1992, Gaussian, Inc.),
 the Gaussian 90(TM) system (copyright 1990, Gaussian, Inc.),
 the Gaussian 88(TM) system (copyright 1988, Gaussian, Inc.),
 the Gaussian 86(TM) system (copyright 1986, Carnegie Mellon
 University), and the Gaussian 82(TM) system (copyright 1983,
 Carnegie Mellon University). Gaussian is a federally registered
 trademark of Gaussian, Inc.
  
 This software contains proprietary and confidential information,
 including trade secrets, belonging to Gaussian, Inc.
  
 This software is provided under written license and may be
 used, copied, transmitted, or stored only in accord with that
 written license.
  
 The following legend is applicable only to US Government
 contracts under FAR:
  
                    RESTRICTED RIGHTS LEGEND
  
 Use, reproduction and disclosure by the US Government is
 subject to restrictions as set forth in subparagraphs (a)
 and (c) of the Commercial Computer Software - Restricted
 Rights clause in FAR 52.227-19.
  
 Gaussian, Inc.
 340 Quinnipiac St., Bldg. 40, Wallingford CT 06492
  
  
 ---------------------------------------------------------------
 Warning -- This program may not be used in any manner that
 competes with the business of Gaussian, Inc. or will provide
 assistance to any competitor of Gaussian, Inc.  The licensee
 of this program is prohibited from giving any competitor of
 Gaussian, Inc. access to this program.  By using this program,
 the user acknowledges that Gaussian, Inc. is engaged in the
 business of creating and licensing software in the field of
 computational chemistry and represents and warrants to the
 licensee that it is not a competitor of Gaussian, Inc. and that
 it will not use this program in any manner prohibited above.
 ---------------------------------------------------------------
  

 Cite this work as:
 Gaussian 09, Revision D.01,
 M. J. Frisch, G. W. Trucks, H. B. Schlegel, G. E. Scuseria, 
 M. A. Robb, J. R. Cheeseman, G. Scalmani, V. Barone, B. Mennucci, 
 G. A. Petersson, H. Nakatsuji, M. Caricato, X. Li, H. P. Hratchian, 
 A. F. Izmaylov, J. Bloino, G. Zheng, J. L. Sonnenberg, M. Hada, 
 M. Ehara, K. Toyota, R. Fukuda, J. Hasegawa, M. Ishida, T. Nakajima, 
 Y. Honda, O. Kitao, H. Nakai, T. Vreven, J. A. Montgomery, Jr., 
 J. E. Peralta, F. Ogliaro, M. Bearpark, J. J. Heyd, E. Brothers, 
 K. N. Kudin, V. N. Staroverov, T. Keith, R. Kobayashi, J. Normand, 
 K. Raghavachari, A. Rendell, J. C. Burant, S. S. Iyengar, J. Tomasi, 
 M. Cossi, N. Rega, J. M. Millam, M. Klene, J. E. Knox, J. B. Cross, 
 V. Bakken, C. Adamo, J. Jaramillo, R. Gomperts, R. E. Stratmann, 
 O. Yazyev, A. J. Austin, R. Cammi, C. Pomelli, J. W. Ochterski, 
 R. L. Martin, K. Morokuma, V. G. Zakrzewski, G. A. Voth, 
 P. Salvador, J. J. Dannenberg, S. Dapprich, A. D. Daniels, 
 O. Farkas, J. B. Foresman, J. V. Ortiz, J. Cioslowski, 
 and D. J. Fox, Gaussian, Inc., Wallingford CT, 2013.
 
 ******************************************
 Gaussian 09:  ES64L-G09RevD.01 24-Apr-2013
                17-Mar-2020 
 ******************************************
 -----------
 #p HF/6-31G
 -----------
 1/38=1/1;
 2/12=2,17=6,18=5,40=1/2;
 3/5=1,6=6,11=9,16=1,25=1,30=1/1,2,3;
 4//1;
 5/5=2,38=5/2;
 6/7=2,8=2,9=2,10=2,28=1/1;
 99/5=1,9=1/99;
 Leave Link    1 at Tue Mar 17 13:43:24 2020, MaxMem=           0 cpu:         0.0
 (Enter /usr/local/gaussian09d01/g09/l101.exe)
 --------
 chk calc
 --------
 Symbolic Z-matrix:
 Charge =  0 Multiplicity = 1
 O                     0.04968   0.20988  -3.34521 
 H                     0.04968   0.96922  -2.74917 
 H                     0.04968  -1.04869  -2.35729 
 
 NAtoms=      3 NQM=        3 NQMF=       0 NMMI=      0 NMMIF=      0
                NMic=       0 NMicF=      0.
                    Isotopes and Nuclear Properties:
 (Nuclear quadrupole moments (NQMom) in fm**2, nuclear magnetic moments (NMagM)
  in nuclear magnetons)

  Atom         1           2           3
 IAtWgt=          16           1           1
 AtmWgt=  15.9949146   1.0078250   1.0078250
 NucSpn=           0           1           1
 AtZEff=   0.0000000   0.0000000   0.0000000
 NQMom=    0.0000000   0.0000000   0.0000000
 NMagM=    0.0000000   2.7928460   2.7928460
 AtZNuc=   8.0000000   1.0000000   1.0000000
 Leave Link  101 at Tue Mar 17 13:43:24 2020, MaxMem=    33554432 cpu:         0.0
 (Enter /usr/local/gaussian09d01/g09/l202.exe)
                          Input orientation:                          
 ---------------------------------------------------------------------
 Center     Atomic      Atomic             Coordinates (Angstroms)
 Number     Number       Type             X           Y           Z
 ---------------------------------------------------------------------
      1          8           0        0.049680    0.209882   -3.345212
      2          1           0        0.049680    0.969219   -2.749169
      3          1           0        0.049680   -1.048693   -2.357291
 ---------------------------------------------------------------------
                    Distance matrix (angstroms):
                    1          2          3
     1  O    0.000000
     2  H    0.965329   0.000000
     3  H    1.600000   2.055612   0.000000
 Stoichiometry    H2O
 Framework group  CS[SG(H2O)]
 Deg. of freedom     3
 Full point group                 CS      NOp   2
 Largest Abelian subgroup         CS      NOp   2
 Largest concise Abelian subgroup C1      NOp   1
                         Standard orientation:                         
 ---------------------------------------------------------------------
 Center     Atomic      Atomic             Coordinates (Angstroms)
 Number     Number       Type             X           Y           Z
 ---------------------------------------------------------------------
      1          8           0        0.000000    0.166078    0.000000
      2          1           0        0.903390   -0.174137    0.000000
      3          1           0       -0.903390   -1.154485    0.000000
 ---------------------------------------------------------------------
 Rotational constants (GHZ):    640.9441636    196.2527215    150.2478553
 Leave Link  202 at Tue Mar 17 13:43:24 2020, MaxMem=    33554432 cpu:         0.0
 (Enter /usr/local/gaussian09d01/g09/l301.exe)
 Standard basis: 6-31G (6D, 7F)
 Ernie: Thresh=  0.10000D-02 Tol=  0.10000D-05 Strict=F.
 There are    11 symmetry adapted cartesian basis functions of A'  symmetry.
 There are     2 symmetry adapted cartesian basis functions of A"  symmetry.
 There are    11 symmetry adapted basis functions of A'  symmetry.
 There are     2 symmetry adapted basis functions of A"  symmetry.
    13 basis functions,    30 primitive gaussians,    13 cartesian basis functions
     5 alpha electrons        5 beta electrons
       nuclear repulsion energy         7.2887830928 Hartrees.
 IExCor=    0 DFT=F Ex=HF Corr=None ExCW=0 ScaHFX=  1.000000
 ScaDFX=  1.000000  1.000000  1.000000  1.000000 ScalE2=  1.000000  1.000000
 IRadAn=      0 IRanWt=     -1 IRanGd=            0 ICorTp=0 IEmpDi=  4
 NAtoms=    3 NActive=    3 NUniq=    3 SFac= 1.00D+00 NAtFMM=   60 NAOKFM=F Big=F
 Integral buffers will be    131072 words long.
 Raffenetti 1 integral format.
 Two-electron integral symmetry is turned on.
 Leave Link  301 at Tue Mar 17 13:43:24 2020, MaxMem=    33554432 cpu:         0.0
 (Enter /usr/local/gaussian09d01/g09/l302.exe)
 NPDir=0 NMtPBC=     1 NCelOv=     1 NCel=       1 NClECP=     1 NCelD=      1
         NCelK=      1 NCelE2=     1 NClLst=     1 CellRange=     0.0.
 One-electron integrals computed using PRISM.
 NBasis=    13 RedAO= T EigKep=  1.18D-01  NBF=    11     2
 NBsUse=    13 1.00D-06 EigRej= -1.00D+00 NBFU=    11     2
 Leave Link  302 at Tue Mar 17 13:43:24 2020, MaxMem=    33554432 cpu:         0.1
 (Enter /usr/local/gaussian09d01/g09/l303.exe)
 DipDrv:  MaxL=1.
 Leave Link  303 at Tue Mar 17 13:43:24 2020, MaxMem=    33554432 cpu:         0.0
 (Enter /usr/local/gaussian09d01/g09/l401.exe)
 ExpMin= 1.61D-01 ExpMax= 5.48D+03 ExpMxC= 8.25D+02 IAcc=1 IRadAn=         1 AccDes= 0.00D+00
 Harris functional with IExCor=  205 and IRadAn=       1 diagonalized for initial guess.
 HarFok:  IExCor=  205 AccDes= 0.00D+00 IRadAn=         1 IDoV= 1 UseB2=F ITyADJ=14
 ICtDFT=  3500011 ScaDFX=  1.000000  1.000000  1.000000  1.000000
 FoFCou: FMM=F IPFlag=           0 FMFlag=      100000 FMFlg1=           0
         NFxFlg=           0 DoJE=T BraDBF=F KetDBF=T FulRan=T
         wScrn=  0.000000 ICntrl=     500 IOpCl=  0 I1Cent=   200000004 NGrid=           0
         NMat0=    1 NMatS0=      1 NMatT0=    0 NMatD0=    1 NMtDS0=    0 NMtDT0=    0
 Petite list used in FoFCou.
 Harris En= -75.9891070246422    
 JPrj=0 DoOrth=F DoCkMO=F.
 Initial guess orbital symmetries:
       Occupied  (A') (A') (A') (A') (A")
       Virtual   (A') (A') (A') (A") (A') (A') (A') (A')
 The electronic state of the initial guess is 1-A'.
 Leave Link  401 at Tue Mar 17 13:43:24 2020, MaxMem=    33554432 cpu:         0.1
 (Enter /usr/local/gaussian09d01/g09/l502.exe)
 Closed shell SCF:
 Using DIIS extrapolation, IDIIS=  1040.
 Integral symmetry usage will be decided dynamically.
 Keep R1 ints in memory in symmetry-blocked form, NReq=829345.
 IVT=       20162 IEndB=       20162 NGot=    33554432 MDV=    33531252
 LenX=    33531252 LenY=    33530370
 Requested convergence on RMS density matrix=1.00D-08 within 128 cycles.
 Requested convergence on MAX density matrix=1.00D-06.
 Requested convergence on             energy=1.00D-06.
 No special actions if energy rises.
 FoFCou: FMM=F IPFlag=           0 FMFlag=           0 FMFlg1=           0
         NFxFlg=           0 DoJE=F BraDBF=F KetDBF=F FulRan=T
         wScrn=  0.000000 ICntrl=     600 IOpCl=  0 I1Cent=           0 NGrid=           0
         NMat0=    1 NMatS0=     91 NMatT0=    0 NMatD0=    1 NMtDS0=    0 NMtDT0=    0
 Petite list used in FoFCou.

 Cycle   1  Pass 1  IDiag  1:
 E= -75.7125941722154    
 DIIS: error= 8.29D-02 at cycle   1 NSaved=   1.
 NSaved= 1 IEnMin= 1 EnMin= -75.7125941722154     IErMin= 1 ErrMin= 8.29D-02
 ErrMax= 8.29D-02  0.00D+00 EMaxC= 1.00D-01 BMatC= 1.43D-01 BMatP= 1.43D-01
 IDIUse=3 WtCom= 1.71D-01 WtEn= 8.29D-01
 Coeff-Com:  0.100D+01
 Coeff-En:   0.100D+01
 Coeff:      0.100D+01
 Gap=     0.280 Goal=   None    Shift=    0.000
 GapD=    0.280 DampG=1.000 DampE=0.500 DampFc=0.5000 IDamp=-1.
 Damping current iteration by 5.00D-01
 RMSDP=3.47D-02 MaxDP=1.91D-01              OVMax= 2.60D-01

 Cycle   2  Pass 1  IDiag  1:
 E= -75.7812238854567     Delta-E=       -0.068629713241 Rises=F Damp=T
 DIIS: error= 2.05D-02 at cycle   2 NSaved=   2.
 NSaved= 2 IEnMin= 2 EnMin= -75.7812238854567     IErMin= 2 ErrMin= 2.05D-02
 ErrMax= 2.05D-02  0.00D+00 EMaxC= 1.00D-01 BMatC= 8.65D-03 BMatP= 1.43D-01
 IDIUse=3 WtCom= 7.95D-01 WtEn= 2.05D-01
 Coeff-Com: -0.597D-01 0.106D+01
 Coeff-En:   0.000D+00 0.100D+01
 Coeff:     -0.475D-01 0.105D+01
 Gap=     0.496 Goal=   None    Shift=    0.000
 RMSDP=5.98D-03 MaxDP=3.08D-02 DE=-6.86D-02 OVMax= 1.05D-01

 Cycle   3  Pass 1  IDiag  1:
 E= -75.8475256899858     Delta-E=       -0.066301804529 Rises=F Damp=F
 DIIS: error= 8.09D-03 at cycle   3 NSaved=   3.
 NSaved= 3 IEnMin= 3 EnMin= -75.8475256899858     IErMin= 3 ErrMin= 8.09D-03
 ErrMax= 8.09D-03  0.00D+00 EMaxC= 1.00D-01 BMatC= 6.99D-04 BMatP= 8.65D-03
 IDIUse=3 WtCom= 9.19D-01 WtEn= 8.09D-02
 Coeff-Com:  0.582D-01-0.237D+00 0.118D+01
 Coeff-En:   0.000D+00 0.000D+00 0.100D+01
 Coeff:      0.535D-01-0.218D+00 0.116D+01
 Gap=     0.528 Goal=   None    Shift=    0.000
 RMSDP=2.22D-03 MaxDP=1.09D-02 DE=-6.63D-02 OVMax= 1.58D-02

 Cycle   4  Pass 1  IDiag  1:
 E= -75.8486417451717     Delta-E=       -0.001116055186 Rises=F Damp=F
 DIIS: error= 3.15D-03 at cycle   4 NSaved=   4.
 NSaved= 4 IEnMin= 4 EnMin= -75.8486417451717     IErMin= 4 ErrMin= 3.15D-03
 ErrMax= 3.15D-03  0.00D+00 EMaxC= 1.00D-01 BMatC= 8.73D-05 BMatP= 6.99D-04
 IDIUse=3 WtCom= 9.68D-01 WtEn= 3.15D-02
 Coeff-Com:  0.722D-03 0.345D-01-0.568D+00 0.153D+01
 Coeff-En:   0.000D+00 0.000D+00 0.000D+00 0.100D+01
 Coeff:      0.699D-03 0.334D-01-0.550D+00 0.152D+01
 Gap=     0.529 Goal=   None    Shift=    0.000
 RMSDP=1.11D-03 MaxDP=5.99D-03 DE=-1.12D-03 OVMax= 7.60D-03

 Cycle   5  Pass 1  IDiag  1:
 E= -75.8488035619930     Delta-E=       -0.000161816821 Rises=F Damp=F
 DIIS: error= 1.71D-04 at cycle   5 NSaved=   5.
 NSaved= 5 IEnMin= 5 EnMin= -75.8488035619930     IErMin= 5 ErrMin= 1.71D-04
 ErrMax= 1.71D-04  0.00D+00 EMaxC= 1.00D-01 BMatC= 7.84D-07 BMatP= 8.73D-05
 IDIUse=3 WtCom= 9.98D-01 WtEn= 1.71D-03
 Coeff-Com: -0.139D-02-0.720D-02 0.167D+00-0.526D+00 0.137D+01
 Coeff-En:   0.000D+00 0.000D+00 0.000D+00 0.000D+00 0.100D+01
 Coeff:     -0.139D-02-0.719D-02 0.167D+00-0.525D+00 0.137D+01
 Gap=     0.529 Goal=   None    Shift=    0.000
 RMSDP=1.54D-04 MaxDP=6.84D-04 DE=-1.62D-04 OVMax= 1.16D-03

 Cycle   6  Pass 1  IDiag  1:
 E= -75.8488062198815     Delta-E=       -0.000002657888 Rises=F Damp=F
 DIIS: error= 5.88D-05 at cycle   6 NSaved=   6.
 NSaved= 6 IEnMin= 6 EnMin= -75.8488062198815     IErMin= 6 ErrMin= 5.88D-05
 ErrMax= 5.88D-05  0.00D+00 EMaxC= 1.00D-01 BMatC= 4.99D-08 BMatP= 7.84D-07
 IDIUse=1 WtCom= 1.00D+00 WtEn= 0.00D+00
 Coeff-Com:  0.829D-03 0.205D-02-0.602D-01 0.198D+00-0.658D+00 0.152D+01
 Coeff:      0.829D-03 0.205D-02-0.602D-01 0.198D+00-0.658D+00 0.152D+01
 Gap=     0.529 Goal=   None    Shift=    0.000
 RMSDP=4.05D-05 MaxDP=1.87D-04 DE=-2.66D-06 OVMax= 3.66D-04

 Cycle   7  Pass 1  IDiag  1:
 E= -75.8488064501229     Delta-E=       -0.000000230241 Rises=F Damp=F
 DIIS: error= 2.09D-05 at cycle   7 NSaved=   7.
 NSaved= 7 IEnMin= 7 EnMin= -75.8488064501229     IErMin= 7 ErrMin= 2.09D-05
 ErrMax= 2.09D-05  0.00D+00 EMaxC= 1.00D-01 BMatC= 5.36D-09 BMatP= 4.99D-08
 IDIUse=1 WtCom= 1.00D+00 WtEn= 0.00D+00
 Coeff-Com: -0.190D-03-0.322D-03 0.921D-02-0.320D-01 0.161D+00-0.744D+00
 Coeff-Com:  0.161D+01
 Coeff:     -0.190D-03-0.322D-03 0.921D-02-0.320D-01 0.161D+00-0.744D+00
 Coeff:      0.161D+01
 Gap=     0.529 Goal=   None    Shift=    0.000
 RMSDP=1.68D-05 MaxDP=7.37D-05 DE=-2.30D-07 OVMax= 1.71D-04

 Cycle   8  Pass 1  IDiag  1:
 E= -75.8488064804419     Delta-E=       -0.000000030319 Rises=F Damp=F
 DIIS: error= 3.52D-06 at cycle   8 NSaved=   8.
 NSaved= 8 IEnMin= 8 EnMin= -75.8488064804419     IErMin= 8 ErrMin= 3.52D-06
 ErrMax= 3.52D-06  0.00D+00 EMaxC= 1.00D-01 BMatC= 2.59D-10 BMatP= 5.36D-09
 IDIUse=1 WtCom= 1.00D+00 WtEn= 0.00D+00
 Coeff-Com:  0.575D-04-0.473D-04-0.265D-05 0.964D-03-0.300D-01 0.247D+00
 Coeff-Com: -0.754D+00 0.154D+01
 Coeff:      0.575D-04-0.473D-04-0.265D-05 0.964D-03-0.300D-01 0.247D+00
 Coeff:     -0.754D+00 0.154D+01
 Gap=     0.529 Goal=   None    Shift=    0.000
 RMSDP=3.96D-06 MaxDP=1.17D-05 DE=-3.03D-08 OVMax= 3.59D-05

 Cycle   9  Pass 1  IDiag  1:
 E= -75.8488064816861     Delta-E=       -0.000000001244 Rises=F Damp=F
 DIIS: error= 7.97D-07 at cycle   9 NSaved=   9.
 NSaved= 9 IEnMin= 9 EnMin= -75.8488064816861     IErMin= 9 ErrMin= 7.97D-07
 ErrMax= 7.97D-07  0.00D+00 EMaxC= 1.00D-01 BMatC= 5.85D-12 BMatP= 2.59D-10
 IDIUse=1 WtCom= 1.00D+00 WtEn= 0.00D+00
 Coeff-Com: -0.153D-04 0.291D-04-0.369D-03 0.833D-03 0.687D-02-0.800D-01
 Coeff-Com:  0.263D+00-0.644D+00 0.145D+01
 Coeff:     -0.153D-04 0.291D-04-0.369D-03 0.833D-03 0.687D-02-0.800D-01
 Coeff:      0.263D+00-0.644D+00 0.145D+01
 Gap=     0.529 Goal=   None    Shift=    0.000
 RMSDP=5.07D-07 MaxDP=1.80D-06 DE=-1.24D-09 OVMax= 3.45D-06

 Cycle  10  Pass 1  IDiag  1:
 E= -75.8488064817036     Delta-E=       -0.000000000017 Rises=F Damp=F
 DIIS: error= 7.30D-08 at cycle  10 NSaved=  10.
 NSaved=10 IEnMin=10 EnMin= -75.8488064817036     IErMin=10 ErrMin= 7.30D-08
 ErrMax= 7.30D-08  0.00D+00 EMaxC= 1.00D-01 BMatC= 1.23D-13 BMatP= 5.85D-12
 IDIUse=1 WtCom= 1.00D+00 WtEn= 0.00D+00
 Coeff-Com:  0.117D-05-0.400D-05 0.829D-04-0.208D-03-0.758D-03 0.119D-01
 Coeff-Com: -0.399D-01 0.108D+00-0.294D+00 0.122D+01
 Coeff:      0.117D-05-0.400D-05 0.829D-04-0.208D-03-0.758D-03 0.119D-01
 Coeff:     -0.399D-01 0.108D+00-0.294D+00 0.122D+01
 Gap=     0.529 Goal=   None    Shift=    0.000
 RMSDP=4.04D-08 MaxDP=1.75D-07 DE=-1.75D-11 OVMax= 3.29D-07

 Cycle  11  Pass 1  IDiag  1:
 E= -75.8488064817038     Delta-E=        0.000000000000 Rises=F Damp=F
 DIIS: error= 8.93D-09 at cycle  11 NSaved=  11.
 NSaved=11 IEnMin=11 EnMin= -75.8488064817038     IErMin=11 ErrMin= 8.93D-09
 ErrMax= 8.93D-09  0.00D+00 EMaxC= 1.00D-01 BMatC= 1.03D-15 BMatP= 1.23D-13
 IDIUse=1 WtCom= 1.00D+00 WtEn= 0.00D+00
 Coeff-Com: -0.705D-07 0.732D-06-0.181D-04 0.479D-04 0.822D-04-0.194D-02
 Coeff-Com:  0.671D-02-0.193D-01 0.575D-01-0.328D+00 0.129D+01
 Coeff:     -0.705D-07 0.732D-06-0.181D-04 0.479D-04 0.822D-04-0.194D-02
 Coeff:      0.671D-02-0.193D-01 0.575D-01-0.328D+00 0.129D+01
 Gap=     0.529 Goal=   None    Shift=    0.000
 RMSDP=5.28D-09 MaxDP=1.62D-08 DE=-2.13D-13 OVMax= 3.30D-08

 SCF Done:  E(RHF) =  -75.8488064817     A.U. after   11 cycles
            NFock= 11  Conv=0.53D-08     -V/T= 2.0056
 KE= 7.542402931980D+01 PE=-1.947137016099D+02 EE= 3.615208271567D+01
 Leave Link  502 at Tue Mar 17 13:43:24 2020, MaxMem=    33554432 cpu:         0.1
 (Enter /usr/local/gaussian09d01/g09/l601.exe)
 Copying SCF densities to generalized density rwf, IOpCl= 0 IROHF=0.

 **********************************************************************

            Population analysis using the SCF density.

 **********************************************************************

 Orbital symmetries:
       Occupied  (A') (A') (A') (A") (A')
       Virtual   (A') (A') (A') (A') (A") (A') (A') (A')
 The electronic state is 1-A'.
 Alpha  occ. eigenvalues --  -20.60652  -1.28960  -0.62164  -0.50020  -0.47479
 Alpha virt. eigenvalues --    0.05427   0.25137   0.94681   1.12394   1.16248
 Alpha virt. eigenvalues --    1.22885   1.33959   1.58901
          Condensed to atoms (all electrons):
               1          2          3
     1  O    8.226877   0.217652   0.201023
     2  H    0.217652   0.391468  -0.010070
     3  H    0.201023  -0.010070   0.564444
 Mulliken charges:
               1
     1  O   -0.645553
     2  H    0.400949
     3  H    0.244603
 Sum of Mulliken charges =   0.00000
 Mulliken charges with hydrogens summed into heavy atoms:
               1
     1  O    0.000000
 Electronic spatial extent (au):  <R**2>=             24.3909
 Charge=              0.0000 electrons
 Dipole moment (field-independent basis, Debye):
    X=              0.8378    Y=             -2.4246    Z=              0.0000  Tot=              2.5653
 Quadrupole moment (field-independent basis, Debye-Ang):
   XX=             -4.2971   YY=             -5.3220   ZZ=             -7.7402
   XY=              1.4028   XZ=              0.0000   YZ=              0.0000
 Traceless Quadrupole moment (field-independent basis, Debye-Ang):
   XX=              1.4894   YY=              0.4644   ZZ=             -1.9538
   XY=              1.4028   XZ=              0.0000   YZ=              0.0000
 Octapole moment (field-independent basis, Debye-Ang**2):
  XXX=              1.6985  YYY=             -2.0369  ZZZ=              0.0000  XYY=             -1.3765
  XXY=             -1.5718  XXZ=              0.0000  XZZ=              0.5386  YZZ=              0.1036
  YYZ=              0.0000  XYZ=              0.0000
 Hexadecapole moment (field-independent basis, Debye-Ang**3):
 XXXX=             -8.7700 YYYY=             -9.9432 ZZZZ=             -5.8814 XXXY=             -1.1606
 XXXZ=              0.0000 YYYX=              0.1524 YYYZ=              0.0000 ZZZX=              0.0000
 ZZZY=              0.0000 XXYY=             -2.0278 XXZZ=             -2.8728 YYZZ=             -3.2107
 XXYZ=              0.0000 YYXZ=              0.0000 ZZXY=             -0.8056
 N-N= 7.288783092759D+00 E-N=-1.947137016112D+02  KE= 7.542402931980D+01
 Symmetry A'   KE= 7.072418172708D+01
 Symmetry A"   KE= 4.699847592716D+00
 No NMR shielding tensors so no spin-rotation constants.
 Leave Link  601 at Tue Mar 17 13:43:24 2020, MaxMem=    33554432 cpu:         0.1
 (Enter /usr/local/gaussian09d01/g09/l9999.exe)
 1\1\GINC-KARURA\SP\RHF\6-31G\H2O1\RTAKE\17-Mar-2020\0\\#p HF/6-31G\\ch
 k calc\\0,1\O,0,0.049680185,0.209882183,-3.345212431\H,0,0.049680185,0
 .969219183,-2.749169431\H,0,0.049680185,-1.048693175,-2.357291347\\Ver
 sion=ES64L-G09RevD.01\State=1-A'\HF=-75.8488065\RMSD=5.279e-09\Dipole=
 0.,0.0276315,1.0088806\Quadrupole=-1.4526069,1.6364863,-0.1838794,0.,0
 .,-0.6359819\PG=CS [SG(H2O1)]\\@


 REALITY IS FOR PEOPLE WHO CAN'T FACE SCIENCE FICTION.
 Job cpu time:       0 days  0 hours  0 minutes  0.4 seconds.
 File lengths (MBytes):  RWF=      5 Int=      0 D2E=      0 Chk=      1 Scr=      1
 Normal termination of Gaussian 09 at Tue Mar 17 13:43:24 2020.
