 Entering Gaussian System, Link 0=g09
 Initial command:
 /usr/local/gaussian09d01/g09/l1.exe "/scr/Gau-32683.inp" -scrdir="/scr/"
 Entering Link 1 = /usr/local/gaussian09d01/g09/l1.exe PID=     32684.
  
 Copyright (c) 1988,1990,1992,1993,1995,1998,2003,2009,2013,
            Gaussian, Inc.  All Rights Reserved.
  
 This is part of the Gaussian(R) 09 program.  It is based on
 the Gaussian(R) 03 system (copyright 2003, Gaussian, Inc.),
 the Gaussian(R) 98 system (copyright 1998, Gaussian, Inc.),
 the Gaussian(R) 94 system (copyright 1995, Gaussian, Inc.),
 the Gaussian 92(TM) system (copyright 1992, Gaussian, Inc.),
 the Gaussian 90(TM) system (copyright 1990, Gaussian, Inc.),
 the Gaussian 88(TM) system (copyright 1988, Gaussian, Inc.),
 the Gaussian 86(TM) system (copyright 1986, Carnegie Mellon
 University), and the Gaussian 82(TM) system (copyright 1983,
 Carnegie Mellon University). Gaussian is a federally registered
 trademark of Gaussian, Inc.
  
 This software contains proprietary and confidential information,
 including trade secrets, belonging to Gaussian, Inc.
  
 This software is provided under written license and may be
 used, copied, transmitted, or stored only in accord with that
 written license.
  
 The following legend is applicable only to US Government
 contracts under FAR:
  
                    RESTRICTED RIGHTS LEGEND
  
 Use, reproduction and disclosure by the US Government is
 subject to restrictions as set forth in subparagraphs (a)
 and (c) of the Commercial Computer Software - Restricted
 Rights clause in FAR 52.227-19.
  
 Gaussian, Inc.
 340 Quinnipiac St., Bldg. 40, Wallingford CT 06492
  
  
 ---------------------------------------------------------------
 Warning -- This program may not be used in any manner that
 competes with the business of Gaussian, Inc. or will provide
 assistance to any competitor of Gaussian, Inc.  The licensee
 of this program is prohibited from giving any competitor of
 Gaussian, Inc. access to this program.  By using this program,
 the user acknowledges that Gaussian, Inc. is engaged in the
 business of creating and licensing software in the field of
 computational chemistry and represents and warrants to the
 licensee that it is not a competitor of Gaussian, Inc. and that
 it will not use this program in any manner prohibited above.
 ---------------------------------------------------------------
  

 Cite this work as:
 Gaussian 09, Revision D.01,
 M. J. Frisch, G. W. Trucks, H. B. Schlegel, G. E. Scuseria, 
 M. A. Robb, J. R. Cheeseman, G. Scalmani, V. Barone, B. Mennucci, 
 G. A. Petersson, H. Nakatsuji, M. Caricato, X. Li, H. P. Hratchian, 
 A. F. Izmaylov, J. Bloino, G. Zheng, J. L. Sonnenberg, M. Hada, 
 M. Ehara, K. Toyota, R. Fukuda, J. Hasegawa, M. Ishida, T. Nakajima, 
 Y. Honda, O. Kitao, H. Nakai, T. Vreven, J. A. Montgomery, Jr., 
 J. E. Peralta, F. Ogliaro, M. Bearpark, J. J. Heyd, E. Brothers, 
 K. N. Kudin, V. N. Staroverov, T. Keith, R. Kobayashi, J. Normand, 
 K. Raghavachari, A. Rendell, J. C. Burant, S. S. Iyengar, J. Tomasi, 
 M. Cossi, N. Rega, J. M. Millam, M. Klene, J. E. Knox, J. B. Cross, 
 V. Bakken, C. Adamo, J. Jaramillo, R. Gomperts, R. E. Stratmann, 
 O. Yazyev, A. J. Austin, R. Cammi, C. Pomelli, J. W. Ochterski, 
 R. L. Martin, K. Morokuma, V. G. Zakrzewski, G. A. Voth, 
 P. Salvador, J. J. Dannenberg, S. Dapprich, A. D. Daniels, 
 O. Farkas, J. B. Foresman, J. V. Ortiz, J. Cioslowski, 
 and D. J. Fox, Gaussian, Inc., Wallingford CT, 2013.
 
 ******************************************
 Gaussian 09:  ES64L-G09RevD.01 24-Apr-2013
                28-Feb-2020 
 ******************************************
 %chk=hcoh_MO.chk
 %nproc=8
 Will use up to    8 processors via shared memory.
 %mem=1000MW
 ----------------------------------------------------------------------
 #p HF/6-31G guess=read scf=(xqc,maxcon=128,maxcyc=512,conver=8) freq=n
 oraman IOp(7/8=20000) IOp(1/10=10) IOp(1/18=10) IOp(2/15=3) IOp(2/12=1
 )
 ----------------------------------------------------------------------
 1/10=10,18=10,30=1,38=1/1,3;
 2/12=1,15=3,17=6,18=5,40=1/2;
 3/5=1,6=6,11=9,16=1,25=1,30=1,71=2,116=-2,140=1/1,2,3;
 4/5=1/1;
 5/5=2,6=8,7=512,8=3,13=1,38=6,85=128,98=1/2,8;
 8/6=4,10=90,11=11/1;
 11/6=1,8=1,9=11,15=111,16=1/1,2,10;
 10/6=1/2;
 6/7=2,8=2,9=2,10=2,18=1,28=1/1;
 7/8=20000,10=1,25=1/1,2,3,16;
 1/10=10,18=10,30=1/3;
 99//99;
 Leave Link    1 at Fri Feb 28 18:56:24 2020, MaxMem=  1048576000 cpu:         0.3
 (Enter /usr/local/gaussian09d01/g09/l101.exe)
 --------------------------------
 frequency calculation: 1 0 0 0 0
 --------------------------------
 Symbolic Z-matrix:
 Charge =  0 Multiplicity = 1
 O                    0     0.09032  -0.46379   0.11437 
 C                    0    -0.02206   0.52142   0.808 
 H                    0    -0.08295   0.45391   1.88571 
 H                    0    -0.06676   1.51449   0.38191 
 
 NAtoms=      4 NQM=        4 NQMF=       0 NMMI=      0 NMMIF=      0
                NMic=       0 NMicF=      0.
                    Isotopes and Nuclear Properties:
 (Nuclear quadrupole moments (NQMom) in fm**2, nuclear magnetic moments (NMagM)
  in nuclear magnetons)

  Atom         1           2           3           4
 IAtWgt=          16          12           1           1
 AtmWgt=  15.9949146  12.0000000   1.0078250   1.0078250
 NucSpn=           0           0           1           1
 AtZEff=   0.0000000   0.0000000   0.0000000   0.0000000
 NQMom=    0.0000000   0.0000000   0.0000000   0.0000000
 NMagM=    0.0000000   0.0000000   2.7928460   2.7928460
 AtZNuc=   8.0000000   6.0000000   1.0000000   1.0000000
 Leave Link  101 at Fri Feb 28 18:56:24 2020, MaxMem=  1048576000 cpu:         0.3
 (Enter /usr/local/gaussian09d01/g09/l103.exe)

 GradGradGradGradGradGradGradGradGradGradGradGradGradGradGradGradGradGrad
 Berny optimization.
 Initialization pass.
 Trust Radius=1.00D-01 FncErr=1.00D-07 GrdErr=1.00D-07
 Number of steps in this run=      2 maximum allowed number of steps=      2.
 GradGradGradGradGradGradGradGradGradGradGradGradGradGradGradGradGradGrad

 Leave Link  103 at Fri Feb 28 18:56:25 2020, MaxMem=  1048576000 cpu:         0.1
 (Enter /usr/local/gaussian09d01/g09/l202.exe)
                          Input orientation:                          
 ---------------------------------------------------------------------
 Center     Atomic      Atomic             Coordinates (Angstroms)
 Number     Number       Type             X           Y           Z
 ---------------------------------------------------------------------
      1          8           0        0.090322   -0.463790    0.114374
      2          6           0       -0.022063    0.521418    0.807996
      3          1           0       -0.082953    0.453908    1.885712
      4          1           0       -0.066756    1.514491    0.381907
 ---------------------------------------------------------------------
                    Distance matrix (angstroms):
                    1          2          3          4
     1  O    0.000000
     2  C    1.210114   0.000000
     3  H    2.002457   1.081544   0.000000
     4  H    2.002459   1.081547   1.840252   0.000000
 Symmetry turned off by external request.
 Stoichiometry    CH2O
 Rotational constants (GHZ):    296.1472382     38.8025883     34.3074647
 Leave Link  202 at Fri Feb 28 18:56:25 2020, MaxMem=  1048576000 cpu:         0.0
 (Enter /usr/local/gaussian09d01/g09/l301.exe)
 Standard basis: 6-31G (6D, 7F)
 Ernie: Thresh=  0.10000D-02 Tol=  0.10000D-05 Strict=F.
    22 basis functions,    52 primitive gaussians,    22 cartesian basis functions
     8 alpha electrons        8 beta electrons
       nuclear repulsion energy        31.3772957628 Hartrees.
 IExCor=    0 DFT=F Ex=HF Corr=None ExCW=0 ScaHFX=  1.000000
 ScaDFX=  1.000000  1.000000  1.000000  1.000000 ScalE2=  1.000000  1.000000
 IRadAn=      0 IRanWt=     -1 IRanGd=            0 ICorTp=0 IEmpDi=  4
 NAtoms=    4 NActive=    4 NUniq=    4 SFac= 1.00D+00 NAtFMM=   60 NAOKFM=F Big=F
 Integral buffers will be    131072 words long.
 Raffenetti 1 integral format.
 Two-electron integral symmetry is turned off.
 Leave Link  301 at Fri Feb 28 18:56:25 2020, MaxMem=  1048576000 cpu:         0.2
 (Enter /usr/local/gaussian09d01/g09/l302.exe)
 NPDir=0 NMtPBC=     1 NCelOv=     1 NCel=       1 NClECP=     1 NCelD=      1
         NCelK=      1 NCelE2=     1 NClLst=     1 CellRange=     0.0.
 One-electron integrals computed using PRISM.
 NBasis=    22 RedAO= T EigKep=  2.26D-02  NBF=    22
 NBsUse=    22 1.00D-06 EigRej= -1.00D+00 NBFU=    22
 Leave Link  302 at Fri Feb 28 18:56:25 2020, MaxMem=  1048576000 cpu:         0.5
 (Enter /usr/local/gaussian09d01/g09/l303.exe)
 DipDrv:  MaxL=1.
 Leave Link  303 at Fri Feb 28 18:56:25 2020, MaxMem=  1048576000 cpu:         0.1
 (Enter /usr/local/gaussian09d01/g09/l401.exe)
 Initial guess from the checkpoint file:  "hcoh_MO.chk"
 B after Tr=     0.000000    0.000000    0.000000
         Rot=    1.000000    0.000000    0.000000    0.000000 Ang=   0.00 deg.
 Guess basis will be translated and rotated to current coordinates.
 JPrj=2 DoOrth=T DoCkMO=T.
 Leave Link  401 at Fri Feb 28 18:56:25 2020, MaxMem=  1048576000 cpu:         0.3
 (Enter /usr/local/gaussian09d01/g09/l502.exe)
 Closed shell SCF:
 Using DIIS extrapolation, IDIIS=  1040.
 Two-electron integral symmetry not used.
 Keep R1 ints in memory in canonical form, NReq=860483.
 IVT=       20318 IEndB=       20318 NGot=  1048576000 MDV=  1048523552
 LenX=  1048523552 LenY=  1048522627
 Requested convergence on RMS density matrix=1.00D-08 within 128 cycles.
 Requested convergence on MAX density matrix=1.00D-06.
 Requested convergence on             energy=1.00D-06.
 No special actions if energy rises.
 FoFCou: FMM=F IPFlag=           0 FMFlag=           0 FMFlg1=           0
         NFxFlg=           0 DoJE=F BraDBF=F KetDBF=F FulRan=T
         wScrn=  0.000000 ICntrl=     600 IOpCl=  0 I1Cent=           0 NGrid=           0
         NMat0=    1 NMatS0=    253 NMatT0=    0 NMatD0=    1 NMtDS0=    0 NMtDT0=    0
 Symmetry not used in FoFCou.

 Cycle   1  Pass 1  IDiag  1:
 E= -113.808366542331    
 DIIS: error= 4.12D-09 at cycle   1 NSaved=   1.
 NSaved= 1 IEnMin= 1 EnMin= -113.808366542331     IErMin= 1 ErrMin= 4.12D-09
 ErrMax= 4.12D-09  0.00D+00 EMaxC= 1.00D-01 BMatC= 4.67D-16 BMatP= 4.67D-16
 IDIUse=1 WtCom= 1.00D+00 WtEn= 0.00D+00
 Coeff-Com:  0.100D+01
 Coeff:      0.100D+01
 Gap=     0.568 Goal=   None    Shift=    0.000
 RMSDP=1.51D-09 MaxDP=7.98D-09              OVMax= 9.50D-09

 SCF Done:  E(RHF) =  -113.808366542     A.U. after    1 cycles
            NFock=  1  Conv=0.15D-08     -V/T= 1.9999
 KE= 1.138214444052D+02 PE=-3.310448023951D+02 EE= 7.203769568473D+01
 Leave Link  502 at Fri Feb 28 18:56:25 2020, MaxMem=  1048576000 cpu:         0.4
 (Enter /usr/local/gaussian09d01/g09/l508.exe)
 QCSCF skips out because SCF is already converged.
 Leave Link  508 at Fri Feb 28 18:56:25 2020, MaxMem=  1048576000 cpu:         0.0
 (Enter /usr/local/gaussian09d01/g09/l801.exe)
 Range of M.O.s used for correlation:     1    22
 NBasis=    22 NAE=     8 NBE=     8 NFC=     0 NFV=     0
 NROrb=     22 NOA=     8 NOB=     8 NVA=    14 NVB=    14
 Leave Link  801 at Fri Feb 28 18:56:25 2020, MaxMem=  1048576000 cpu:         0.1
 (Enter /usr/local/gaussian09d01/g09/l1101.exe)
 Using compressed storage, NAtomX=     4.
 Will process      5 centers per pass.
 Leave Link 1101 at Fri Feb 28 18:56:25 2020, MaxMem=  1048576000 cpu:         0.5
 (Enter /usr/local/gaussian09d01/g09/l1102.exe)
 Symmetrizing basis deriv contribution to polar:
 IMax=3 JMax=2 DiffMx= 0.00D+00
 Leave Link 1102 at Fri Feb 28 18:56:25 2020, MaxMem=  1048576000 cpu:         0.1
 (Enter /usr/local/gaussian09d01/g09/l1110.exe)
 Forming Gx(P) for the SCF density, NAtomX=     4.
 Integral derivatives from FoFJK, PRISM(SPDF).
 Do as many integral derivatives as possible in FoFJK.
 G2DrvN: MDV=    1048575864.
 G2DrvN: will do     5 centers at a time, making    1 passes.
 Calling FoFCou, ICntrl=  3107 FMM=F I1Cent=   0 AccDes= 0.00D+00.
 FoFJK:  IHMeth= 1 ICntrl=    3107 DoSepK=F KAlg= 0 I1Cent=   0 FoldK=F
 IRaf=         0 NMat=   1 IRICut=       1 DoRegI=T DoRafI=F ISym2E= 0.
 FoFCou: FMM=F IPFlag=           0 FMFlag=      100000 FMFlg1=           0
         NFxFlg=           0 DoJE=F BraDBF=F KetDBF=F FulRan=T
         wScrn=  0.000000 ICntrl=    3107 IOpCl=  0 I1Cent=           0 NGrid=           0
         NMat0=    1 NMatS0=      1 NMatT0=    0 NMatD0=    1 NMtDS0=    0 NMtDT0=    0
 Symmetry not used in FoFCou.
 End of G2Drv F.D. properties file   721 does not exist.
 End of G2Drv F.D. properties file   722 does not exist.
 End of G2Drv F.D. properties file   788 does not exist.
 Leave Link 1110 at Fri Feb 28 18:56:25 2020, MaxMem=  1048576000 cpu:         0.5
 (Enter /usr/local/gaussian09d01/g09/l1002.exe)
 Minotr:  Closed shell wavefunction.
          IDoAtm=1111
          Direct CPHF calculation.
          Differentiating once with respect to electric field.
                with respect to dipole field.
          Differentiating once with respect to nuclear coordinates.
          Requested convergence is 1.0D-08 RMS, and 1.0D-07 maximum.
          Secondary convergence is 1.0D-12 RMS, and 1.0D-12 maximum.
          NewPWx=T KeepS1=F KeepF1=F KeepIn=T MapXYZ=F SortEE=F KeepMc=T.
          MDV=    1048575934 using IRadAn=       2.
 Keep R1 ints in memory in canonical form, NReq=844148.
 FoFCou: FMM=F IPFlag=           0 FMFlag=           0 FMFlg1=           0
         NFxFlg=           0 DoJE=F BraDBF=F KetDBF=F FulRan=T
         wScrn=  0.000000 ICntrl=     600 IOpCl=  0 I1Cent=           0 NGrid=           0
         NMat0=    1 NMatS0=    253 NMatT0=    0 NMatD0=    1 NMtDS0=    0 NMtDT0=    0
 Symmetry not used in FoFCou.
          Solving linear equations simultaneously, MaxMat=       0.
          There are    15 degrees of freedom in the 1st order CPHF.  IDoFFX=6 NUNeed=     3.
     12 vectors produced by pass  0 Test12= 7.47D-16 6.67D-09 XBig12= 4.32D+00 1.39D+00.
 AX will form    12 AO Fock derivatives at one time.
     12 vectors produced by pass  1 Test12= 7.47D-16 6.67D-09 XBig12= 1.70D-01 1.34D-01.
     12 vectors produced by pass  2 Test12= 7.47D-16 6.67D-09 XBig12= 1.54D-03 1.89D-02.
     12 vectors produced by pass  3 Test12= 7.47D-16 6.67D-09 XBig12= 3.50D-06 8.90D-04.
     12 vectors produced by pass  4 Test12= 7.47D-16 6.67D-09 XBig12= 9.36D-09 3.81D-05.
     12 vectors produced by pass  5 Test12= 7.47D-16 6.67D-09 XBig12= 2.12D-11 2.54D-06.
      5 vectors produced by pass  6 Test12= 7.47D-16 6.67D-09 XBig12= 5.51D-14 1.33D-07.
 InvSVY:  IOpt=1 It=  1 EMax= 2.00D-15
 Solved reduced A of dimension    77 with    12 vectors.
 FullF1:  Do perturbations    1 to     3.
 Isotropic polarizability for W=    0.000000       11.86 Bohr**3.
 End of Minotr F.D. properties file   721 does not exist.
 End of Minotr F.D. properties file   722 does not exist.
 End of Minotr F.D. properties file   788 does not exist.
 Leave Link 1002 at Fri Feb 28 18:56:25 2020, MaxMem=  1048576000 cpu:         0.4
 (Enter /usr/local/gaussian09d01/g09/l601.exe)
 Copying SCF densities to generalized density rwf, IOpCl= 0 IROHF=0.

 **********************************************************************

            Population analysis using the SCF density.

 **********************************************************************

 Alpha  occ. eigenvalues --  -20.59361 -11.34911  -1.42640  -0.87952  -0.70798
 Alpha  occ. eigenvalues --   -0.64327  -0.53144  -0.44265
 Alpha virt. eigenvalues --    0.12573   0.24549   0.32684   0.36947   0.73411
 Alpha virt. eigenvalues --    0.82503   0.85377   0.97933   1.15381   1.15713
 Alpha virt. eigenvalues --    1.23781   1.26782   1.38398   1.89137
          Condensed to atoms (all electrons):
               1          2          3          4
     1  O    8.141499   0.430879  -0.059039  -0.059039
     2  C    0.430879   4.678511   0.365859   0.365859
     3  H   -0.059039   0.365859   0.616483  -0.071006
     4  H   -0.059039   0.365859  -0.071006   0.616483
 Mulliken charges:
               1
     1  O   -0.454299
     2  C    0.158893
     3  H    0.147703
     4  H    0.147703
 Sum of Mulliken charges =   0.00000
 Mulliken charges with hydrogens summed into heavy atoms:
               1
     1  O   -0.454299
     2  C    0.454299
 APT charges:
               1
     1  O   -0.640274
     2  C    0.682241
     3  H   -0.020983
     4  H   -0.020984
 Sum of APT charges =   0.00000
 APT charges with hydrogens summed into heavy atoms:
               1
     1  O   -0.640274
     2  C    0.640274
 Electronic spatial extent (au):  <R**2>=             73.5960
 Charge=              0.0000 electrons
 Dipole moment (field-independent basis, Debye):
    X=             -0.2826    Y=              2.4777    Z=              1.7444  Tot=              3.0433
 Quadrupole moment (field-independent basis, Debye-Ang):
   XX=            -11.6607   YY=            -11.6931   ZZ=            -10.0484
   XY=              0.1057   XZ=             -0.0519   YZ=              0.9433
 Traceless Quadrupole moment (field-independent basis, Debye-Ang):
   XX=             -0.5266   YY=             -0.5590   ZZ=              1.0857
   XY=              0.1057   XZ=             -0.0519   YZ=              0.9433
 Octapole moment (field-independent basis, Debye-Ang**2):
  XXX=             -0.7921  YYY=             -2.3962  ZZZ=            -15.7703  XYY=             -0.4295
  XXY=             -1.4927  XXZ=             -6.1900  XZZ=             -0.4006  YZZ=             -0.5545
  YYZ=             -6.0196  XYZ=             -0.0102
 Hexadecapole moment (field-independent basis, Debye-Ang**3):
 XXXX=             -9.9263 YYYY=            -34.4539 ZZZZ=            -40.7934 XXXY=              1.1730
 XXXZ=              0.5237 YYYX=              1.1283 YYYZ=             -7.6726 ZZZX=              0.2770
 ZZZY=             -7.2239 XXYY=             -7.7274 XXZZ=             -9.3961 YYZZ=            -13.3711
 XXYZ=             -2.7781 YYXZ=              0.1103 ZZXY=              0.3514
 N-N= 3.137729576285D+01 E-N=-3.310448024431D+02  KE= 1.138214444052D+02
  Exact polarizability:   5.624  -0.962  16.175  -0.741   3.331  13.779
 Approx polarizability:   4.615  -0.973  14.513  -0.727   4.268  11.449
 No NMR shielding tensors so no spin-rotation constants.
 Leave Link  601 at Fri Feb 28 18:56:25 2020, MaxMem=  1048576000 cpu:         0.5
 (Enter /usr/local/gaussian09d01/g09/l701.exe)
 Compute integral second derivatives.
 ... and contract with generalized density number  0.
 Leave Link  701 at Fri Feb 28 18:56:25 2020, MaxMem=  1048576000 cpu:         0.6
 (Enter /usr/local/gaussian09d01/g09/l702.exe)
 L702 exits ... SP integral derivatives will be done elsewhere.
 Leave Link  702 at Fri Feb 28 18:56:25 2020, MaxMem=  1048576000 cpu:         0.1
 (Enter /usr/local/gaussian09d01/g09/l703.exe)
 Compute integral second derivatives, UseDBF=F ICtDFT=           0.
 Integral derivatives from FoFJK, PRISM(SPDF).
 Calling FoFJK, ICntrl=    100127 FMM=F ISym2X=0 I1Cent= 0 IOpClX= 0 NMat=1 NMatS=1 NMatT=0.
 FoFJK:  IHMeth= 1 ICntrl=  100127 DoSepK=F KAlg= 0 I1Cent=   0 FoldK=F
 IRaf=         0 NMat=   1 IRICut=       1 DoRegI=T DoRafI=F ISym2E= 0.
 FoFCou: FMM=F IPFlag=           0 FMFlag=      100000 FMFlg1=         800
         NFxFlg=           0 DoJE=F BraDBF=F KetDBF=F FulRan=T
         wScrn=  0.000000 ICntrl=  100127 IOpCl=  0 I1Cent=           0 NGrid=           0
         NMat0=    1 NMatS0=      1 NMatT0=    0 NMatD0=    1 NMtDS0=    0 NMtDT0=    0
 Symmetry not used in FoFCou.
 Leave Link  703 at Fri Feb 28 18:56:25 2020, MaxMem=  1048576000 cpu:         0.9
 (Enter /usr/local/gaussian09d01/g09/l716.exe)
 Dipole        =-1.11197114D-01 9.74790386D-01 6.86288851D-01
 Polarizability= 5.62430766D+00-9.61891234D-01 1.61754359D+01
                -7.41009323D-01 3.33052698D+00 1.37792388D+01
 HyperPolar    =-2.01054760D+00 5.93636443D+00-2.57268510D+00
                 5.35325903D+01 4.24244845D+00 4.43259452D-01
                -6.68037484D+00-3.47175020D+00 1.11438636D+01
                 5.21516612D+01
 -------------------------------------------------------------------
 Center     Atomic                   Forces (Hartrees/Bohr)
 Number     Number              X              Y              Z
 -------------------------------------------------------------------
      1        8           0.000000107   -0.000000254   -0.000000190
      2        6          -0.000000181    0.000000666   -0.000001769
      3        1          -0.000000016    0.000000233    0.000001350
      4        1           0.000000090   -0.000000646    0.000000610
 -------------------------------------------------------------------
 Cartesian Forces:  Max     0.000001769 RMS     0.000000730
 Z-matrix is all fixed cartesians, so copy forces.
 Force constants in Cartesian coordinates: 
                1             2             3             4             5 
      1  0.294140D-01
      2 -0.700935D-01  0.658669D+00
      3 -0.500008D-01  0.405959D+00  0.367757D+00
      4 -0.738235D-01  0.604987D-01  0.431070D-01  0.217253D+00
      5  0.604987D-01 -0.615217D+00 -0.352406D+00 -0.669768D-01  0.979763D+00
      6  0.431070D-01 -0.352407D+00 -0.362689D+00 -0.523943D-01  0.199358D+00
      7  0.221625D-01  0.250840D-02  0.681398D-02 -0.718881D-01 -0.156572D-02
      8  0.468399D-02  0.259015D-02 -0.533009D-01 -0.179852D-02 -0.826561D-01
      9  0.427435D-02 -0.176101D-01 -0.268079D-01  0.133716D-01  0.390581D-01
     10  0.222471D-01  0.708641D-02  0.798274D-04 -0.715418D-01  0.804384D-02
     11  0.491090D-02 -0.460427D-01 -0.251473D-03  0.827654D-02 -0.281890D+00
     12  0.261948D-02 -0.359419D-01  0.217400D-01 -0.408433D-02  0.113990D+00
                6             7             8             9            10 
      6  0.836113D+00
      7  0.130999D-01  0.256258D-01
      8  0.428773D-01 -0.273780D-02  0.795954D-01
      9 -0.336158D+00 -0.198323D-01 -0.197259D-01  0.372601D+00
     10 -0.381263D-02  0.240998D-01 -0.147672D-03  0.218637D-02  0.251949D-01
     11  0.110171D+00  0.179513D-02  0.470556D-03 -0.172213D-02 -0.149826D-01
     12 -0.137265D+00 -0.815790D-04  0.301495D-01 -0.963466D-02  0.154643D-02
               11            12 
     11  0.327462D+00
     12 -0.108198D+00  0.125160D+00
 Leave Link  716 at Fri Feb 28 18:56:25 2020, MaxMem=  1048576000 cpu:         0.1
 (Enter /usr/local/gaussian09d01/g09/l103.exe)

 GradGradGradGradGradGradGradGradGradGradGradGradGradGradGradGradGradGrad
 Berny optimization.
 Search for a local minimum.
 Step number   1 out of a maximum of    2
 All quantities printed in internal units (Hartrees-Bohrs-Radians)
 Second derivative matrix not updated -- unit matrix used.
 ITU=  0
 Angle between quadratic step and forces=   0.00 degrees.
 Linear search not attempted -- first point.
 TrRot=  0.000000  0.000000  0.000000  0.000000  0.000000  0.000000
 Variable       Old X    -DE/DX   Delta X   Delta X   Delta X     New X
                                 (Linear)    (Quad)   (Total)
    X1        0.17068   0.00000   0.00000   0.00000   0.00000   0.17068
    Y1       -0.87644   0.00000   0.00000   0.00000   0.00000  -0.87644
    Z1        0.21614   0.00000   0.00000   0.00000   0.00000   0.21614
    X2       -0.04169   0.00000   0.00000   0.00000   0.00000  -0.04169
    Y2        0.98534   0.00000   0.00000   0.00000   0.00000   0.98534
    Z2        1.52689   0.00000   0.00000   0.00000   0.00000   1.52689
    X3       -0.15676   0.00000   0.00000   0.00000   0.00000  -0.15676
    Y3        0.85776   0.00000   0.00000   0.00000   0.00000   0.85776
    Z3        3.56348   0.00000   0.00000   0.00000   0.00000   3.56348
    X4       -0.12615   0.00000   0.00000   0.00000   0.00000  -0.12615
    Y4        2.86197   0.00000   0.00000   0.00000   0.00000   2.86197
    Z4        0.72170   0.00000   0.00000   0.00000   0.00000   0.72170
         Item               Value     Threshold  Converged?
 Maximum Force            0.000002     0.000450     YES
 RMS     Force            0.000001     0.000300     YES
 Maximum Displacement     0.000002     0.001800     YES
 RMS     Displacement     0.000001     0.001200     YES
 Predicted change in Energy=-3.196108D-12
 Optimization completed.
    -- Stationary point found.
 GradGradGradGradGradGradGradGradGradGradGradGradGradGradGradGradGradGrad

 Leave Link  103 at Fri Feb 28 18:56:25 2020, MaxMem=  1048576000 cpu:         0.1
 (Enter /usr/local/gaussian09d01/g09/l9999.exe)

 Test job not archived.
 1\1\GINC-KA07\Freq\RHF\6-31G\C1H2O1\RTAKE\28-Feb-2020\0\\#p HF/6-31G g
 uess=read scf=(xqc,maxcon=128,maxcyc=512,conver=8) freq=noraman IOp(7/
 8=20000) IOp(1/10=10) IOp(1/18=10) IOp(2/15=3) IOp(2/12=1)\\frequency 
 calculation: 1 0 0 0 0\\0,1\O,0.0903221306,-0.4637903989,0.1143738911\
 C,-0.0220629164,0.5214176236,0.8079958778\H,-0.0829531765,0.4539084736
 ,1.8857116415\H,-0.0667555102,1.5144905062,0.381906808\\Version=ES64L-
 G09RevD.01\HF=-113.8083665\RMSD=1.508e-09\RMSF=7.299e-07\Dipole=-0.111
 1971,0.9747904,0.6862889\DipoleDeriv=-0.4295235,0.0380144,0.0282033,0.
 0380146,-0.8087333,-0.1757978,0.0282037,-0.1757995,-0.6825641,0.221889
 7,-0.052745,-0.0442235,-0.0527449,0.9258736,0.0359587,-0.0442237,0.035
 9606,0.8989584,0.1036988,0.0039049,0.013995,0.0041006,0.0094953,0.0440
 193,0.0137662,0.04723,-0.1761432,0.103935,0.0108257,0.0020251,0.010629
 6,-0.1266356,0.0958198,0.0022538,0.0926089,-0.0402511\Polar=5.6243077,
 -0.9618912,16.1754359,-0.7410093,3.330527,13.7792388\HyperPolar=-2.010
 5476,5.9363644,-2.5726851,53.5325903,4.2424484,0.4432595,-6.6803748,-3
 .4717502,11.1438636,52.1516612\PG=Unknown\NImag=0\\0.02941395,-0.07009
 355,0.65866942,-0.05000079,0.40595883,0.36775703,-0.07382352,0.0604987
 4,0.04310698,0.21725341,0.06049865,-0.61521689,-0.35240643,-0.06697677
 ,0.97976286,0.04310697,-0.35240685,-0.36268912,-0.05239427,0.19935812,
 0.83611288,0.02216246,0.00250840,0.00681398,-0.07188810,-0.00156572,0.
 01309994,0.02562582,0.00468399,0.00259015,-0.05330093,-0.00179852,-0.0
 8265611,0.04287732,-0.00273780,0.07959540,0.00427435,-0.01761010,-0.02
 680795,0.01337162,0.03905812,-0.33615841,-0.01983234,-0.01972589,0.372
 60103,0.02224711,0.00708641,0.00007983,-0.07154179,0.00804384,-0.00381
 263,0.02409981,-0.00014767,0.00218637,0.02519487,0.00491090,-0.0460426
 8,-0.00025147,0.00827654,-0.28188986,0.11017142,0.00179513,0.00047056,
 -0.00172213,-0.01498258,0.32746198,0.00261948,-0.03594188,0.02174004,-
 0.00408433,0.11399019,-0.13726535,-0.00008158,0.03014951,-0.00963466,0
 .00154643,-0.10819782,0.12515997\\-0.00000011,0.00000025,0.00000019,0.
 00000018,-0.00000067,0.00000177,0.00000002,-0.00000023,-0.00000135,-0.
 00000009,0.00000065,-0.00000061\\\@


 MORNING PEOPLE ARE USUALLY ADMIRED AS EARLY BIRDS.
 RECALL BEN FRANKLIN'S APHORISM THAT THE EARLY BIRD GETS THE WORM.
 I IDENTIFY WITH THE WORM. --  CRAIG JAGGER, MINNEAPOLIS, KS.
 Job cpu time:       0 days  0 hours  0 minutes  6.6 seconds.
 File lengths (MBytes):  RWF=      5 Int=      0 D2E=      0 Chk=      1 Scr=      1
 Normal termination of Gaussian 09 at Fri Feb 28 18:56:25 2020.
