 Entering Gaussian System, Link 0=g09
 Input=./h2o_h2h3_40.gjf
 Output=./h2o_h2h3_40.log
 Initial command:
 /usr/local/gaussian09d01/g09/l1.exe "/scr/Gau-12057.inp" -scrdir="/scr/"
 Entering Link 1 = /usr/local/gaussian09d01/g09/l1.exe PID=     12058.
  
 Copyright (c) 1988,1990,1992,1993,1995,1998,2003,2009,2013,
            Gaussian, Inc.  All Rights Reserved.
  
 This is part of the Gaussian(R) 09 program.  It is based on
 the Gaussian(R) 03 system (copyright 2003, Gaussian, Inc.),
 the Gaussian(R) 98 system (copyright 1998, Gaussian, Inc.),
 the Gaussian(R) 94 system (copyright 1995, Gaussian, Inc.),
 the Gaussian 92(TM) system (copyright 1992, Gaussian, Inc.),
 the Gaussian 90(TM) system (copyright 1990, Gaussian, Inc.),
 the Gaussian 88(TM) system (copyright 1988, Gaussian, Inc.),
 the Gaussian 86(TM) system (copyright 1986, Carnegie Mellon
 University), and the Gaussian 82(TM) system (copyright 1983,
 Carnegie Mellon University). Gaussian is a federally registered
 trademark of Gaussian, Inc.
  
 This software contains proprietary and confidential information,
 including trade secrets, belonging to Gaussian, Inc.
  
 This software is provided under written license and may be
 used, copied, transmitted, or stored only in accord with that
 written license.
  
 The following legend is applicable only to US Government
 contracts under FAR:
  
                    RESTRICTED RIGHTS LEGEND
  
 Use, reproduction and disclosure by the US Government is
 subject to restrictions as set forth in subparagraphs (a)
 and (c) of the Commercial Computer Software - Restricted
 Rights clause in FAR 52.227-19.
  
 Gaussian, Inc.
 340 Quinnipiac St., Bldg. 40, Wallingford CT 06492
  
  
 ---------------------------------------------------------------
 Warning -- This program may not be used in any manner that
 competes with the business of Gaussian, Inc. or will provide
 assistance to any competitor of Gaussian, Inc.  The licensee
 of this program is prohibited from giving any competitor of
 Gaussian, Inc. access to this program.  By using this program,
 the user acknowledges that Gaussian, Inc. is engaged in the
 business of creating and licensing software in the field of
 computational chemistry and represents and warrants to the
 licensee that it is not a competitor of Gaussian, Inc. and that
 it will not use this program in any manner prohibited above.
 ---------------------------------------------------------------
  

 Cite this work as:
 Gaussian 09, Revision D.01,
 M. J. Frisch, G. W. Trucks, H. B. Schlegel, G. E. Scuseria, 
 M. A. Robb, J. R. Cheeseman, G. Scalmani, V. Barone, B. Mennucci, 
 G. A. Petersson, H. Nakatsuji, M. Caricato, X. Li, H. P. Hratchian, 
 A. F. Izmaylov, J. Bloino, G. Zheng, J. L. Sonnenberg, M. Hada, 
 M. Ehara, K. Toyota, R. Fukuda, J. Hasegawa, M. Ishida, T. Nakajima, 
 Y. Honda, O. Kitao, H. Nakai, T. Vreven, J. A. Montgomery, Jr., 
 J. E. Peralta, F. Ogliaro, M. Bearpark, J. J. Heyd, E. Brothers, 
 K. N. Kudin, V. N. Staroverov, T. Keith, R. Kobayashi, J. Normand, 
 K. Raghavachari, A. Rendell, J. C. Burant, S. S. Iyengar, J. Tomasi, 
 M. Cossi, N. Rega, J. M. Millam, M. Klene, J. E. Knox, J. B. Cross, 
 V. Bakken, C. Adamo, J. Jaramillo, R. Gomperts, R. E. Stratmann, 
 O. Yazyev, A. J. Austin, R. Cammi, C. Pomelli, J. W. Ochterski, 
 R. L. Martin, K. Morokuma, V. G. Zakrzewski, G. A. Voth, 
 P. Salvador, J. J. Dannenberg, S. Dapprich, A. D. Daniels, 
 O. Farkas, J. B. Foresman, J. V. Ortiz, J. Cioslowski, 
 and D. J. Fox, Gaussian, Inc., Wallingford CT, 2013.
 
 ******************************************
 Gaussian 09:  ES64L-G09RevD.01 24-Apr-2013
                17-Mar-2020 
 ******************************************
 -----------
 #p HF/6-31G
 -----------
 1/38=1/1;
 2/12=2,17=6,18=5,40=1/2;
 3/5=1,6=6,11=9,16=1,25=1,30=1/1,2,3;
 4//1;
 5/5=2,38=5/2;
 6/7=2,8=2,9=2,10=2,28=1/1;
 99/5=1,9=1/99;
 Leave Link    1 at Tue Mar 17 12:43:54 2020, MaxMem=           0 cpu:         0.0
 (Enter /usr/local/gaussian09d01/g09/l101.exe)
 --------
 chk calc
 --------
 Symbolic Z-matrix:
 Charge =  0 Multiplicity = 1
 O                     0.04968  -0.03974  -3.14927 
 H                    -0.18271  -0.27426  -2.24216 
 H                     0.28207   0.19479  -2.24216 
 
 NAtoms=      3 NQM=        3 NQMF=       0 NMMI=      0 NMMIF=      0
                NMic=       0 NMicF=      0.
                    Isotopes and Nuclear Properties:
 (Nuclear quadrupole moments (NQMom) in fm**2, nuclear magnetic moments (NMagM)
  in nuclear magnetons)

  Atom         1           2           3
 IAtWgt=          16           1           1
 AtmWgt=  15.9949146   1.0078250   1.0078250
 NucSpn=           0           1           1
 AtZEff=   0.0000000   0.0000000   0.0000000
 NQMom=    0.0000000   0.0000000   0.0000000
 NMagM=    0.0000000   2.7928460   2.7928460
 AtZNuc=   8.0000000   1.0000000   1.0000000
 Leave Link  101 at Tue Mar 17 12:43:54 2020, MaxMem=    33554432 cpu:         0.1
 (Enter /usr/local/gaussian09d01/g09/l202.exe)
                          Input orientation:                          
 ---------------------------------------------------------------------
 Center     Atomic      Atomic             Coordinates (Angstroms)
 Number     Number       Type             X           Y           Z
 ---------------------------------------------------------------------
      1          8           0        0.049680   -0.039737   -3.149273
      2          1           0       -0.182709   -0.274262   -2.242161
      3          1           0        0.282069    0.194788   -2.242161
 ---------------------------------------------------------------------
                    Distance matrix (angstroms):
                    1          2          3
     1  O    0.000000
     2  H    0.965329   0.000000
     3  H    0.965329   0.660324   0.000000
 Stoichiometry    H2O
 Framework group  C2V[C2(O),SGV(H2)]
 Deg. of freedom     2
 Full point group                 C2V     NOp   4
 Largest Abelian subgroup         C2V     NOp   4
 Largest concise Abelian subgroup C2      NOp   2
                         Standard orientation:                         
 ---------------------------------------------------------------------
 Center     Atomic      Atomic             Coordinates (Angstroms)
 Number     Number       Type             X           Y           Z
 ---------------------------------------------------------------------
      1          8           0        0.000000    0.000000    0.181422
      2          1           0        0.000000    0.330162   -0.725690
      3          1           0        0.000000   -0.330162   -0.725690
 ---------------------------------------------------------------------
 Rotational constants (GHZ):   2300.1070333    343.1035309    298.5667715
 Leave Link  202 at Tue Mar 17 12:43:55 2020, MaxMem=    33554432 cpu:         0.0
 (Enter /usr/local/gaussian09d01/g09/l301.exe)
 Standard basis: 6-31G (6D, 7F)
 Ernie: Thresh=  0.10000D-02 Tol=  0.10000D-05 Strict=F.
 There are     7 symmetry adapted cartesian basis functions of A1  symmetry.
 There are     0 symmetry adapted cartesian basis functions of A2  symmetry.
 There are     2 symmetry adapted cartesian basis functions of B1  symmetry.
 There are     4 symmetry adapted cartesian basis functions of B2  symmetry.
 There are     7 symmetry adapted basis functions of A1  symmetry.
 There are     0 symmetry adapted basis functions of A2  symmetry.
 There are     2 symmetry adapted basis functions of B1  symmetry.
 There are     4 symmetry adapted basis functions of B2  symmetry.
    13 basis functions,    30 primitive gaussians,    13 cartesian basis functions
     5 alpha electrons        5 beta electrons
       nuclear repulsion energy         9.5723233886 Hartrees.
 IExCor=    0 DFT=F Ex=HF Corr=None ExCW=0 ScaHFX=  1.000000
 ScaDFX=  1.000000  1.000000  1.000000  1.000000 ScalE2=  1.000000  1.000000
 IRadAn=      0 IRanWt=     -1 IRanGd=            0 ICorTp=0 IEmpDi=  4
 NAtoms=    3 NActive=    3 NUniq=    2 SFac= 2.25D+00 NAtFMM=   60 NAOKFM=F Big=F
 Integral buffers will be    131072 words long.
 Raffenetti 1 integral format.
 Two-electron integral symmetry is turned on.
 Leave Link  301 at Tue Mar 17 12:43:55 2020, MaxMem=    33554432 cpu:         0.1
 (Enter /usr/local/gaussian09d01/g09/l302.exe)
 NPDir=0 NMtPBC=     1 NCelOv=     1 NCel=       1 NClECP=     1 NCelD=      1
         NCelK=      1 NCelE2=     1 NClLst=     1 CellRange=     0.0.
 One-electron integrals computed using PRISM.
 One-electron integral symmetry used in STVInt
 NBasis=    13 RedAO= T EigKep=  5.03D-02  NBF=     7     0     2     4
 NBsUse=    13 1.00D-06 EigRej= -1.00D+00 NBFU=     7     0     2     4
 Leave Link  302 at Tue Mar 17 12:43:55 2020, MaxMem=    33554432 cpu:         0.1
 (Enter /usr/local/gaussian09d01/g09/l303.exe)
 DipDrv:  MaxL=1.
 Leave Link  303 at Tue Mar 17 12:43:55 2020, MaxMem=    33554432 cpu:         0.0
 (Enter /usr/local/gaussian09d01/g09/l401.exe)
 ExpMin= 1.61D-01 ExpMax= 5.48D+03 ExpMxC= 8.25D+02 IAcc=1 IRadAn=         1 AccDes= 0.00D+00
 Harris functional with IExCor=  205 and IRadAn=       1 diagonalized for initial guess.
 HarFok:  IExCor=  205 AccDes= 0.00D+00 IRadAn=         1 IDoV= 1 UseB2=F ITyADJ=14
 ICtDFT=  3500011 ScaDFX=  1.000000  1.000000  1.000000  1.000000
 FoFCou: FMM=F IPFlag=           0 FMFlag=      100000 FMFlg1=           0
         NFxFlg=           0 DoJE=T BraDBF=F KetDBF=T FulRan=T
         wScrn=  0.000000 ICntrl=     500 IOpCl=  0 I1Cent=   200000004 NGrid=           0
         NMat0=    1 NMatS0=      1 NMatT0=    0 NMatD0=    1 NMtDS0=    0 NMtDT0=    0
 Petite list used in FoFCou.
 Harris En= -75.9042784762625    
 JPrj=0 DoOrth=F DoCkMO=F.
 Initial guess orbital symmetries:
       Occupied  (A1) (A1) (A1) (B2) (B1)
       Virtual   (A1) (B2) (A1) (B1) (A1) (B2) (B2) (A1)
 The electronic state of the initial guess is 1-A1.
 Leave Link  401 at Tue Mar 17 12:43:55 2020, MaxMem=    33554432 cpu:         0.1
 (Enter /usr/local/gaussian09d01/g09/l502.exe)
 Closed shell SCF:
 Using DIIS extrapolation, IDIIS=  1040.
 Integral symmetry usage will be decided dynamically.
 Keep R1 ints in memory in symmetry-blocked form, NReq=829701.
 IVT=       20197 IEndB=       20197 NGot=    33554432 MDV=    33532255
 LenX=    33532255 LenY=    33531373
 Requested convergence on RMS density matrix=1.00D-08 within 128 cycles.
 Requested convergence on MAX density matrix=1.00D-06.
 Requested convergence on             energy=1.00D-06.
 No special actions if energy rises.
 FoFCou: FMM=F IPFlag=           0 FMFlag=           0 FMFlg1=           0
         NFxFlg=           0 DoJE=F BraDBF=F KetDBF=F FulRan=T
         wScrn=  0.000000 ICntrl=     600 IOpCl=  0 I1Cent=           0 NGrid=           0
         NMat0=    1 NMatS0=     91 NMatT0=    0 NMatD0=    1 NMtDS0=    0 NMtDT0=    0
 Petite list used in FoFCou.

 Cycle   1  Pass 1  IDiag  1:
 E= -75.7187770839213    
 DIIS: error= 7.90D-02 at cycle   1 NSaved=   1.
 NSaved= 1 IEnMin= 1 EnMin= -75.7187770839213     IErMin= 1 ErrMin= 7.90D-02
 ErrMax= 7.90D-02  0.00D+00 EMaxC= 1.00D-01 BMatC= 1.11D-01 BMatP= 1.11D-01
 IDIUse=3 WtCom= 2.10D-01 WtEn= 7.90D-01
 Coeff-Com:  0.100D+01
 Coeff-En:   0.100D+01
 Coeff:      0.100D+01
 Gap=     0.578 Goal=   None    Shift=    0.000
 GapD=    0.578 DampG=2.000 DampE=0.500 DampFc=1.0000 IDamp=-1.
 RMSDP=3.26D-02 MaxDP=1.49D-01              OVMax= 1.25D-01

 Cycle   2  Pass 1  IDiag  1:
 E= -75.7737373568332     Delta-E=       -0.054960272912 Rises=F Damp=F
 DIIS: error= 5.29D-02 at cycle   2 NSaved=   2.
 NSaved= 2 IEnMin= 2 EnMin= -75.7737373568332     IErMin= 2 ErrMin= 5.29D-02
 ErrMax= 5.29D-02  0.00D+00 EMaxC= 1.00D-01 BMatC= 4.09D-02 BMatP= 1.11D-01
 IDIUse=3 WtCom= 4.71D-01 WtEn= 5.29D-01
 Coeff-Com:  0.367D+00 0.633D+00
 Coeff-En:   0.121D+00 0.879D+00
 Coeff:      0.237D+00 0.763D+00
 Gap=     0.709 Goal=   None    Shift=    0.000
 RMSDP=1.68D-02 MaxDP=9.17D-02 DE=-5.50D-02 OVMax= 5.25D-02

 Cycle   3  Pass 1  IDiag  1:
 E= -75.8014483722338     Delta-E=       -0.027711015401 Rises=F Damp=F
 DIIS: error= 1.11D-02 at cycle   3 NSaved=   3.
 NSaved= 3 IEnMin= 3 EnMin= -75.8014483722338     IErMin= 3 ErrMin= 1.11D-02
 ErrMax= 1.11D-02  0.00D+00 EMaxC= 1.00D-01 BMatC= 2.20D-03 BMatP= 4.09D-02
 IDIUse=3 WtCom= 8.89D-01 WtEn= 1.11D-01
 Coeff-Com: -0.449D-01 0.138D+00 0.907D+00
 Coeff-En:   0.000D+00 0.000D+00 0.100D+01
 Coeff:     -0.399D-01 0.123D+00 0.917D+00
 Gap=     0.685 Goal=   None    Shift=    0.000
 RMSDP=2.77D-03 MaxDP=1.48D-02 DE=-2.77D-02 OVMax= 1.33D-02

 Cycle   4  Pass 1  IDiag  1:
 E= -75.8032458413888     Delta-E=       -0.001797469155 Rises=F Damp=F
 DIIS: error= 1.40D-03 at cycle   4 NSaved=   4.
 NSaved= 4 IEnMin= 4 EnMin= -75.8032458413888     IErMin= 4 ErrMin= 1.40D-03
 ErrMax= 1.40D-03  0.00D+00 EMaxC= 1.00D-01 BMatC= 3.05D-05 BMatP= 2.20D-03
 IDIUse=3 WtCom= 9.86D-01 WtEn= 1.40D-02
 Coeff-Com:  0.109D-01-0.933D-01-0.375D+00 0.146D+01
 Coeff-En:   0.000D+00 0.000D+00 0.000D+00 0.100D+01
 Coeff:      0.107D-01-0.920D-01-0.370D+00 0.145D+01
 Gap=     0.689 Goal=   None    Shift=    0.000
 RMSDP=1.03D-03 MaxDP=3.67D-03 DE=-1.80D-03 OVMax= 3.87D-03

 Cycle   5  Pass 1  IDiag  1:
 E= -75.8033099023445     Delta-E=       -0.000064060956 Rises=F Damp=F
 DIIS: error= 2.44D-04 at cycle   5 NSaved=   5.
 NSaved= 5 IEnMin= 5 EnMin= -75.8033099023445     IErMin= 5 ErrMin= 2.44D-04
 ErrMax= 2.44D-04  0.00D+00 EMaxC= 1.00D-01 BMatC= 7.52D-07 BMatP= 3.05D-05
 IDIUse=3 WtCom= 9.98D-01 WtEn= 2.44D-03
 Coeff-Com: -0.328D-02 0.366D-01 0.131D+00-0.684D+00 0.152D+01
 Coeff-En:   0.000D+00 0.000D+00 0.000D+00 0.000D+00 0.100D+01
 Coeff:     -0.327D-02 0.365D-01 0.131D+00-0.682D+00 0.152D+01
 Gap=     0.689 Goal=   None    Shift=    0.000
 RMSDP=2.94D-04 MaxDP=1.05D-03 DE=-6.41D-05 OVMax= 1.04D-03

 Cycle   6  Pass 1  IDiag  1:
 E= -75.8033124960842     Delta-E=       -0.000002593740 Rises=F Damp=F
 DIIS: error= 5.37D-05 at cycle   6 NSaved=   6.
 NSaved= 6 IEnMin= 6 EnMin= -75.8033124960842     IErMin= 6 ErrMin= 5.37D-05
 ErrMax= 5.37D-05  0.00D+00 EMaxC= 1.00D-01 BMatC= 1.89D-08 BMatP= 7.52D-07
 IDIUse=1 WtCom= 1.00D+00 WtEn= 0.00D+00
 Coeff-Com:  0.639D-03-0.886D-02-0.310D-01 0.187D+00-0.501D+00 0.135D+01
 Coeff:      0.639D-03-0.886D-02-0.310D-01 0.187D+00-0.501D+00 0.135D+01
 Gap=     0.689 Goal=   None    Shift=    0.000
 RMSDP=2.69D-05 MaxDP=9.94D-05 DE=-2.59D-06 OVMax= 9.18D-05

 Cycle   7  Pass 1  IDiag  1:
 E= -75.8033125325181     Delta-E=       -0.000000036434 Rises=F Damp=F
 DIIS: error= 7.05D-06 at cycle   7 NSaved=   7.
 NSaved= 7 IEnMin= 7 EnMin= -75.8033125325181     IErMin= 7 ErrMin= 7.05D-06
 ErrMax= 7.05D-06  0.00D+00 EMaxC= 1.00D-01 BMatC= 4.24D-10 BMatP= 1.89D-08
 IDIUse=1 WtCom= 1.00D+00 WtEn= 0.00D+00
 Coeff-Com: -0.711D-04 0.130D-02 0.441D-02-0.324D-01 0.934D-01-0.386D+00
 Coeff-Com:  0.132D+01
 Coeff:     -0.711D-04 0.130D-02 0.441D-02-0.324D-01 0.934D-01-0.386D+00
 Coeff:      0.132D+01
 Gap=     0.689 Goal=   None    Shift=    0.000
 RMSDP=5.42D-06 MaxDP=1.90D-05 DE=-3.64D-08 OVMax= 2.09D-05

 Cycle   8  Pass 1  IDiag  1:
 E= -75.8033125334587     Delta-E=       -0.000000000941 Rises=F Damp=F
 DIIS: error= 6.22D-07 at cycle   8 NSaved=   8.
 NSaved= 8 IEnMin= 8 EnMin= -75.8033125334587     IErMin= 8 ErrMin= 6.22D-07
 ErrMax= 6.22D-07  0.00D+00 EMaxC= 1.00D-01 BMatC= 3.63D-12 BMatP= 4.24D-10
 IDIUse=1 WtCom= 1.00D+00 WtEn= 0.00D+00
 Coeff-Com: -0.248D-05-0.408D-04-0.110D-03 0.196D-02-0.626D-02 0.380D-01
 Coeff-Com: -0.179D+00 0.115D+01
 Coeff:     -0.248D-05-0.408D-04-0.110D-03 0.196D-02-0.626D-02 0.380D-01
 Coeff:     -0.179D+00 0.115D+01
 Gap=     0.689 Goal=   None    Shift=    0.000
 RMSDP=3.28D-07 MaxDP=1.17D-06 DE=-9.41D-10 OVMax= 8.76D-07

 Cycle   9  Pass 1  IDiag  1:
 E= -75.8033125334637     Delta-E=       -0.000000000005 Rises=F Damp=F
 DIIS: error= 5.84D-08 at cycle   9 NSaved=   9.
 NSaved= 9 IEnMin= 9 EnMin= -75.8033125334637     IErMin= 9 ErrMin= 5.84D-08
 ErrMax= 5.84D-08  0.00D+00 EMaxC= 1.00D-01 BMatC= 2.24D-14 BMatP= 3.63D-12
 IDIUse=1 WtCom= 1.00D+00 WtEn= 0.00D+00
 Coeff-Com:  0.506D-06 0.499D-06-0.116D-05-0.119D-03 0.353D-03-0.211D-02
 Coeff-Com:  0.105D-01-0.147D+00 0.114D+01
 Coeff:      0.506D-06 0.499D-06-0.116D-05-0.119D-03 0.353D-03-0.211D-02
 Coeff:      0.105D-01-0.147D+00 0.114D+01
 Gap=     0.689 Goal=   None    Shift=    0.000
 RMSDP=2.17D-08 MaxDP=5.80D-08 DE=-5.06D-12 OVMax= 9.65D-08

 Cycle  10  Pass 1  IDiag  1:
 E= -75.8033125334638     Delta-E=        0.000000000000 Rises=F Damp=F
 DIIS: error= 2.71D-09 at cycle  10 NSaved=  10.
 NSaved=10 IEnMin=10 EnMin= -75.8033125334638     IErMin=10 ErrMin= 2.71D-09
 ErrMax= 2.71D-09  0.00D+00 EMaxC= 1.00D-01 BMatC= 1.27D-16 BMatP= 2.24D-14
 IDIUse=1 WtCom= 1.00D+00 WtEn= 0.00D+00
 Coeff-Com: -0.116D-06 0.780D-07 0.936D-06 0.196D-04-0.565D-04 0.314D-03
 Coeff-Com: -0.163D-02 0.319D-01-0.293D+00 0.126D+01
 Coeff:     -0.116D-06 0.780D-07 0.936D-06 0.196D-04-0.565D-04 0.314D-03
 Coeff:     -0.163D-02 0.319D-01-0.293D+00 0.126D+01
 Gap=     0.689 Goal=   None    Shift=    0.000
 RMSDP=3.03D-09 MaxDP=1.02D-08 DE=-4.26D-14 OVMax= 7.98D-09

 SCF Done:  E(RHF) =  -75.8033125335     A.U. after   10 cycles
            NFock= 10  Conv=0.30D-08     -V/T= 1.9942
 KE= 7.624478319672D+01 PE=-1.992998704904D+02 EE= 3.767945137162D+01
 Leave Link  502 at Tue Mar 17 12:43:55 2020, MaxMem=    33554432 cpu:         0.1
 (Enter /usr/local/gaussian09d01/g09/l601.exe)
 Copying SCF densities to generalized density rwf, IOpCl= 0 IROHF=0.

 **********************************************************************

            Population analysis using the SCF density.

 **********************************************************************

 Orbital symmetries:
       Occupied  (A1) (A1) (A1) (B2) (B1)
       Virtual   (A1) (B2) (A1) (B1) (B2) (A1) (B2) (A1)
 The electronic state is 1-A1.
 Alpha  occ. eigenvalues --  -20.59154  -1.45207  -0.72022  -0.56102  -0.52325
 Alpha virt. eigenvalues --    0.16598   0.31114   0.84887   1.14769   1.22707
 Alpha virt. eigenvalues --    1.22978   1.38320   1.53531
          Condensed to atoms (all electrons):
               1          2          3
     1  O    8.343832   0.111114   0.111114
     2  H    0.111114   0.641151  -0.035295
     3  H    0.111114  -0.035295   0.641151
 Mulliken charges:
               1
     1  O   -0.566060
     2  H    0.283030
     3  H    0.283030
 Sum of Mulliken charges =   0.00000
 Mulliken charges with hydrogens summed into heavy atoms:
               1
     1  O    0.000000
 Electronic spatial extent (au):  <R**2>=             19.2575
 Charge=              0.0000 electrons
 Dipole moment (field-independent basis, Debye):
    X=              0.0000    Y=              0.0000    Z=             -3.0906  Tot=              3.0906
 Quadrupole moment (field-independent basis, Debye-Ang):
   XX=             -7.1101   YY=             -6.7483   ZZ=             -4.6727
   XY=              0.0000   XZ=              0.0000   YZ=              0.0000
 Traceless Quadrupole moment (field-independent basis, Debye-Ang):
   XX=             -0.9331   YY=             -0.5713   ZZ=              1.5044
   XY=              0.0000   XZ=              0.0000   YZ=              0.0000
 Octapole moment (field-independent basis, Debye-Ang**2):
  XXX=              0.0000  YYY=              0.0000  ZZZ=             -2.1294  XYY=              0.0000
  XXY=              0.0000  XXZ=             -0.6078  XZZ=              0.0000  YZZ=              0.0000
  YYZ=             -0.5611  XYZ=              0.0000
 Hexadecapole moment (field-independent basis, Debye-Ang**3):
 XXXX=             -5.0681 YYYY=             -5.9527 ZZZZ=             -6.7573 XXXY=              0.0000
 XXXZ=              0.0000 YYYX=              0.0000 YYYZ=              0.0000 ZZZX=              0.0000
 ZZZY=              0.0000 XXYY=             -1.8380 XXZZ=             -2.1672 YYZZ=             -2.1665
 XXYZ=              0.0000 YYXZ=              0.0000 ZZXY=              0.0000
 N-N= 9.572323388553D+00 E-N=-1.992998705115D+02  KE= 7.624478319672D+01
 Symmetry A1   KE= 6.740973204171D+01
 Symmetry A2   KE= 0.000000000000D+00
 Symmetry B1   KE= 4.653852977191D+00
 Symmetry B2   KE= 4.181198177815D+00
 No NMR shielding tensors so no spin-rotation constants.
 Leave Link  601 at Tue Mar 17 12:43:55 2020, MaxMem=    33554432 cpu:         0.1
 (Enter /usr/local/gaussian09d01/g09/l9999.exe)
 1\1\GINC-KARURA\SP\RHF\6-31G\H2O1\RTAKE\17-Mar-2020\0\\#p HF/6-31G\\ch
 k calc\\0,1\O,0,0.049680185,-0.039736996,-3.149273389\H,0,-0.182708966
 ,-0.274262448,-2.24216092\H,0,0.282069337,0.194788456,-2.242160919\\Ve
 rsion=ES64L-G09RevD.01\State=1-A1\HF=-75.8033125\RMSD=3.034e-09\Dipole
 =0.,0.,1.2159467\Quadrupole=-0.5604623,-0.5580008,1.1184632,0.1344958,
 0.,0.\PG=C02V [C2(O1),SGV(H2)]\\@


 CHILDREN YOU ARE VERY LITTLE,
 AND YOUR BONES ARE VERY BRITTLE;
 IF YOU WOULD GROW GREAT AND STATELY
 YOU MUST TRY TO WALK SEDATELY.
 YOU MUST STILL BE BRIGHT AND QUIET,
 AND CONTENT WITH SIMPLE DIET;
 AND REMAIN, THROUGH ALL BEWILD'RING
 INNOCENT AND HONEST CHILDREN.
     -- A CHILD'S GARDEN OF VERSE,
        ROBERT LOUIS STEVENSON
 Job cpu time:       0 days  0 hours  0 minutes  0.9 seconds.
 File lengths (MBytes):  RWF=      5 Int=      0 D2E=      0 Chk=      1 Scr=      1
 Normal termination of Gaussian 09 at Tue Mar 17 12:43:55 2020.
