 Entering Gaussian System, Link 0=g09
 Input=./h2o_h2h3_70.gjf
 Output=./h2o_h2h3_70.log
 Initial command:
 /usr/local/gaussian09d01/g09/l1.exe "/scr/Gau-12063.inp" -scrdir="/scr/"
 Entering Link 1 = /usr/local/gaussian09d01/g09/l1.exe PID=     12064.
  
 Copyright (c) 1988,1990,1992,1993,1995,1998,2003,2009,2013,
            Gaussian, Inc.  All Rights Reserved.
  
 This is part of the Gaussian(R) 09 program.  It is based on
 the Gaussian(R) 03 system (copyright 2003, Gaussian, Inc.),
 the Gaussian(R) 98 system (copyright 1998, Gaussian, Inc.),
 the Gaussian(R) 94 system (copyright 1995, Gaussian, Inc.),
 the Gaussian 92(TM) system (copyright 1992, Gaussian, Inc.),
 the Gaussian 90(TM) system (copyright 1990, Gaussian, Inc.),
 the Gaussian 88(TM) system (copyright 1988, Gaussian, Inc.),
 the Gaussian 86(TM) system (copyright 1986, Carnegie Mellon
 University), and the Gaussian 82(TM) system (copyright 1983,
 Carnegie Mellon University). Gaussian is a federally registered
 trademark of Gaussian, Inc.
  
 This software contains proprietary and confidential information,
 including trade secrets, belonging to Gaussian, Inc.
  
 This software is provided under written license and may be
 used, copied, transmitted, or stored only in accord with that
 written license.
  
 The following legend is applicable only to US Government
 contracts under FAR:
  
                    RESTRICTED RIGHTS LEGEND
  
 Use, reproduction and disclosure by the US Government is
 subject to restrictions as set forth in subparagraphs (a)
 and (c) of the Commercial Computer Software - Restricted
 Rights clause in FAR 52.227-19.
  
 Gaussian, Inc.
 340 Quinnipiac St., Bldg. 40, Wallingford CT 06492
  
  
 ---------------------------------------------------------------
 Warning -- This program may not be used in any manner that
 competes with the business of Gaussian, Inc. or will provide
 assistance to any competitor of Gaussian, Inc.  The licensee
 of this program is prohibited from giving any competitor of
 Gaussian, Inc. access to this program.  By using this program,
 the user acknowledges that Gaussian, Inc. is engaged in the
 business of creating and licensing software in the field of
 computational chemistry and represents and warrants to the
 licensee that it is not a competitor of Gaussian, Inc. and that
 it will not use this program in any manner prohibited above.
 ---------------------------------------------------------------
  

 Cite this work as:
 Gaussian 09, Revision D.01,
 M. J. Frisch, G. W. Trucks, H. B. Schlegel, G. E. Scuseria, 
 M. A. Robb, J. R. Cheeseman, G. Scalmani, V. Barone, B. Mennucci, 
 G. A. Petersson, H. Nakatsuji, M. Caricato, X. Li, H. P. Hratchian, 
 A. F. Izmaylov, J. Bloino, G. Zheng, J. L. Sonnenberg, M. Hada, 
 M. Ehara, K. Toyota, R. Fukuda, J. Hasegawa, M. Ishida, T. Nakajima, 
 Y. Honda, O. Kitao, H. Nakai, T. Vreven, J. A. Montgomery, Jr., 
 J. E. Peralta, F. Ogliaro, M. Bearpark, J. J. Heyd, E. Brothers, 
 K. N. Kudin, V. N. Staroverov, T. Keith, R. Kobayashi, J. Normand, 
 K. Raghavachari, A. Rendell, J. C. Burant, S. S. Iyengar, J. Tomasi, 
 M. Cossi, N. Rega, J. M. Millam, M. Klene, J. E. Knox, J. B. Cross, 
 V. Bakken, C. Adamo, J. Jaramillo, R. Gomperts, R. E. Stratmann, 
 O. Yazyev, A. J. Austin, R. Cammi, C. Pomelli, J. W. Ochterski, 
 R. L. Martin, K. Morokuma, V. G. Zakrzewski, G. A. Voth, 
 P. Salvador, J. J. Dannenberg, S. Dapprich, A. D. Daniels, 
 O. Farkas, J. B. Foresman, J. V. Ortiz, J. Cioslowski, 
 and D. J. Fox, Gaussian, Inc., Wallingford CT, 2013.
 
 ******************************************
 Gaussian 09:  ES64L-G09RevD.01 24-Apr-2013
                17-Mar-2020 
 ******************************************
 -----------
 #p HF/6-31G
 -----------
 1/38=1/1;
 2/12=2,17=6,18=5,40=1/2;
 3/5=1,6=6,11=9,16=1,25=1,30=1/1,2,3;
 4//1;
 5/5=2,38=5/2;
 6/7=2,8=2,9=2,10=2,28=1/1;
 99/5=1,9=1/99;
 Leave Link    1 at Tue Mar 17 12:43:57 2020, MaxMem=           0 cpu:         0.0
 (Enter /usr/local/gaussian09d01/g09/l101.exe)
 --------
 chk calc
 --------
 Symbolic Z-matrix:
 Charge =  0 Multiplicity = 1
 O                     0.04968  -0.03974  -3.14927 
 H                    -0.34004  -0.43304  -2.35852 
 H                     0.4394    0.35357  -2.35852 
 
 NAtoms=      3 NQM=        3 NQMF=       0 NMMI=      0 NMMIF=      0
                NMic=       0 NMicF=      0.
                    Isotopes and Nuclear Properties:
 (Nuclear quadrupole moments (NQMom) in fm**2, nuclear magnetic moments (NMagM)
  in nuclear magnetons)

  Atom         1           2           3
 IAtWgt=          16           1           1
 AtmWgt=  15.9949146   1.0078250   1.0078250
 NucSpn=           0           1           1
 AtZEff=   0.0000000   0.0000000   0.0000000
 NQMom=    0.0000000   0.0000000   0.0000000
 NMagM=    0.0000000   2.7928460   2.7928460
 AtZNuc=   8.0000000   1.0000000   1.0000000
 Leave Link  101 at Tue Mar 17 12:43:57 2020, MaxMem=    33554432 cpu:         0.2
 (Enter /usr/local/gaussian09d01/g09/l202.exe)
                          Input orientation:                          
 ---------------------------------------------------------------------
 Center     Atomic      Atomic             Coordinates (Angstroms)
 Number     Number       Type             X           Y           Z
 ---------------------------------------------------------------------
      1          8           0        0.049680   -0.039737   -3.149273
      2          1           0       -0.340042   -0.433042   -2.358522
      3          1           0        0.439403    0.353568   -2.358522
 ---------------------------------------------------------------------
                    Distance matrix (angstroms):
                    1          2          3
     1  O    0.000000
     2  H    0.965329   0.000000
     3  H    0.965329   1.107380   0.000000
 Stoichiometry    H2O
 Framework group  C2V[C2(O),SGV(H2)]
 Deg. of freedom     2
 Full point group                 C2V     NOp   4
 Largest Abelian subgroup         C2V     NOp   4
 Largest concise Abelian subgroup C2      NOp   2
                         Standard orientation:                         
 ---------------------------------------------------------------------
 Center     Atomic      Atomic             Coordinates (Angstroms)
 Number     Number       Type             X           Y           Z
 ---------------------------------------------------------------------
      1          8           0        0.000000    0.000000    0.158150
      2          1           0        0.000000    0.553690   -0.632601
      3          1           0        0.000000   -0.553690   -0.632601
 ---------------------------------------------------------------------
 Rotational constants (GHZ):    817.8408765    451.5104236    290.9073954
 Leave Link  202 at Tue Mar 17 12:43:57 2020, MaxMem=    33554432 cpu:         0.0
 (Enter /usr/local/gaussian09d01/g09/l301.exe)
 Standard basis: 6-31G (6D, 7F)
 Ernie: Thresh=  0.10000D-02 Tol=  0.10000D-05 Strict=F.
 There are     7 symmetry adapted cartesian basis functions of A1  symmetry.
 There are     0 symmetry adapted cartesian basis functions of A2  symmetry.
 There are     2 symmetry adapted cartesian basis functions of B1  symmetry.
 There are     4 symmetry adapted cartesian basis functions of B2  symmetry.
 There are     7 symmetry adapted basis functions of A1  symmetry.
 There are     0 symmetry adapted basis functions of A2  symmetry.
 There are     2 symmetry adapted basis functions of B1  symmetry.
 There are     4 symmetry adapted basis functions of B2  symmetry.
    13 basis functions,    30 primitive gaussians,    13 cartesian basis functions
     5 alpha electrons        5 beta electrons
       nuclear repulsion energy         9.2487972133 Hartrees.
 IExCor=    0 DFT=F Ex=HF Corr=None ExCW=0 ScaHFX=  1.000000
 ScaDFX=  1.000000  1.000000  1.000000  1.000000 ScalE2=  1.000000  1.000000
 IRadAn=      0 IRanWt=     -1 IRanGd=            0 ICorTp=0 IEmpDi=  4
 NAtoms=    3 NActive=    3 NUniq=    2 SFac= 2.25D+00 NAtFMM=   60 NAOKFM=F Big=F
 Integral buffers will be    131072 words long.
 Raffenetti 1 integral format.
 Two-electron integral symmetry is turned on.
 Leave Link  301 at Tue Mar 17 12:43:58 2020, MaxMem=    33554432 cpu:         0.0
 (Enter /usr/local/gaussian09d01/g09/l302.exe)
 NPDir=0 NMtPBC=     1 NCelOv=     1 NCel=       1 NClECP=     1 NCelD=      1
         NCelK=      1 NCelE2=     1 NClLst=     1 CellRange=     0.0.
 One-electron integrals computed using PRISM.
 One-electron integral symmetry used in STVInt
 NBasis=    13 RedAO= T EigKep=  1.07D-01  NBF=     7     0     2     4
 NBsUse=    13 1.00D-06 EigRej= -1.00D+00 NBFU=     7     0     2     4
 Leave Link  302 at Tue Mar 17 12:43:58 2020, MaxMem=    33554432 cpu:         0.1
 (Enter /usr/local/gaussian09d01/g09/l303.exe)
 DipDrv:  MaxL=1.
 Leave Link  303 at Tue Mar 17 12:43:58 2020, MaxMem=    33554432 cpu:         0.1
 (Enter /usr/local/gaussian09d01/g09/l401.exe)
 ExpMin= 1.61D-01 ExpMax= 5.48D+03 ExpMxC= 8.25D+02 IAcc=1 IRadAn=         1 AccDes= 0.00D+00
 Harris functional with IExCor=  205 and IRadAn=       1 diagonalized for initial guess.
 HarFok:  IExCor=  205 AccDes= 0.00D+00 IRadAn=         1 IDoV= 1 UseB2=F ITyADJ=14
 ICtDFT=  3500011 ScaDFX=  1.000000  1.000000  1.000000  1.000000
 FoFCou: FMM=F IPFlag=           0 FMFlag=      100000 FMFlg1=           0
         NFxFlg=           0 DoJE=T BraDBF=F KetDBF=T FulRan=T
         wScrn=  0.000000 ICntrl=     500 IOpCl=  0 I1Cent=   200000004 NGrid=           0
         NMat0=    1 NMatS0=      1 NMatT0=    0 NMatD0=    1 NMtDS0=    0 NMtDT0=    0
 Petite list used in FoFCou.
 Harris En= -76.0419684258346    
 JPrj=0 DoOrth=F DoCkMO=F.
 Initial guess orbital symmetries:
       Occupied  (A1) (A1) (A1) (B2) (B1)
       Virtual   (A1) (B2) (B2) (A1) (B1) (A1) (B2) (A1)
 The electronic state of the initial guess is 1-A1.
 Leave Link  401 at Tue Mar 17 12:43:58 2020, MaxMem=    33554432 cpu:         0.2
 (Enter /usr/local/gaussian09d01/g09/l502.exe)
 Closed shell SCF:
 Using DIIS extrapolation, IDIIS=  1040.
 Integral symmetry usage will be decided dynamically.
 Keep R1 ints in memory in symmetry-blocked form, NReq=829687.
 IVT=       20197 IEndB=       20197 NGot=    33554432 MDV=    33532255
 LenX=    33532255 LenY=    33531373
 Requested convergence on RMS density matrix=1.00D-08 within 128 cycles.
 Requested convergence on MAX density matrix=1.00D-06.
 Requested convergence on             energy=1.00D-06.
 No special actions if energy rises.
 FoFCou: FMM=F IPFlag=           0 FMFlag=           0 FMFlg1=           0
         NFxFlg=           0 DoJE=F BraDBF=F KetDBF=F FulRan=T
         wScrn=  0.000000 ICntrl=     600 IOpCl=  0 I1Cent=           0 NGrid=           0
         NMat0=    1 NMatS0=     91 NMatT0=    0 NMatD0=    1 NMtDS0=    0 NMtDT0=    0
 Petite list used in FoFCou.

 Cycle   1  Pass 1  IDiag  1:
 E= -75.8413597577876    
 DIIS: error= 9.43D-02 at cycle   1 NSaved=   1.
 NSaved= 1 IEnMin= 1 EnMin= -75.8413597577876     IErMin= 1 ErrMin= 9.43D-02
 ErrMax= 9.43D-02  0.00D+00 EMaxC= 1.00D-01 BMatC= 1.20D-01 BMatP= 1.20D-01
 IDIUse=3 WtCom= 5.66D-02 WtEn= 9.43D-01
 Coeff-Com:  0.100D+01
 Coeff-En:   0.100D+01
 Coeff:      0.100D+01
 Gap=     0.559 Goal=   None    Shift=    0.000
 GapD=    0.559 DampG=2.000 DampE=0.500 DampFc=1.0000 IDamp=-1.
 RMSDP=2.70D-02 MaxDP=1.30D-01              OVMax= 1.38D-01

 Cycle   2  Pass 1  IDiag  1:
 E= -75.8986246214212     Delta-E=       -0.057264863634 Rises=F Damp=F
 DIIS: error= 5.75D-02 at cycle   2 NSaved=   2.
 NSaved= 2 IEnMin= 2 EnMin= -75.8986246214212     IErMin= 2 ErrMin= 5.75D-02
 ErrMax= 5.75D-02  0.00D+00 EMaxC= 1.00D-01 BMatC= 4.72D-02 BMatP= 1.20D-01
 IDIUse=3 WtCom= 4.25D-01 WtEn= 5.75D-01
 Coeff-Com:  0.377D+00 0.623D+00
 Coeff-En:   0.152D+00 0.848D+00
 Coeff:      0.247D+00 0.753D+00
 Gap=     0.716 Goal=   None    Shift=    0.000
 RMSDP=1.37D-02 MaxDP=8.42D-02 DE=-5.73D-02 OVMax= 4.91D-02

 Cycle   3  Pass 1  IDiag  1:
 E= -75.9298731813199     Delta-E=       -0.031248559899 Rises=F Damp=F
 DIIS: error= 1.38D-02 at cycle   3 NSaved=   3.
 NSaved= 3 IEnMin= 3 EnMin= -75.9298731813199     IErMin= 3 ErrMin= 1.38D-02
 ErrMax= 1.38D-02  0.00D+00 EMaxC= 1.00D-01 BMatC= 2.29D-03 BMatP= 4.72D-02
 IDIUse=3 WtCom= 8.62D-01 WtEn= 1.38D-01
 Coeff-Com: -0.384D-01 0.140D+00 0.899D+00
 Coeff-En:   0.000D+00 0.000D+00 0.100D+01
 Coeff:     -0.331D-01 0.121D+00 0.913D+00
 Gap=     0.692 Goal=   None    Shift=    0.000
 RMSDP=2.54D-03 MaxDP=1.35D-02 DE=-3.12D-02 OVMax= 1.27D-02

 Cycle   4  Pass 1  IDiag  1:
 E= -75.9316475537834     Delta-E=       -0.001774372464 Rises=F Damp=F
 DIIS: error= 1.97D-03 at cycle   4 NSaved=   4.
 NSaved= 4 IEnMin= 4 EnMin= -75.9316475537834     IErMin= 4 ErrMin= 1.97D-03
 ErrMax= 1.97D-03  0.00D+00 EMaxC= 1.00D-01 BMatC= 3.14D-05 BMatP= 2.29D-03
 IDIUse=3 WtCom= 9.80D-01 WtEn= 1.97D-02
 Coeff-Com:  0.852D-02-0.745D-01-0.258D+00 0.132D+01
 Coeff-En:   0.000D+00 0.000D+00 0.000D+00 0.100D+01
 Coeff:      0.835D-02-0.730D-01-0.253D+00 0.132D+01
 Gap=     0.697 Goal=   None    Shift=    0.000
 RMSDP=3.87D-04 MaxDP=2.72D-03 DE=-1.77D-03 OVMax= 8.33D-04

 Cycle   5  Pass 1  IDiag  1:
 E= -75.9316758727328     Delta-E=       -0.000028318949 Rises=F Damp=F
 DIIS: error= 1.53D-04 at cycle   5 NSaved=   5.
 NSaved= 5 IEnMin= 5 EnMin= -75.9316758727328     IErMin= 5 ErrMin= 1.53D-04
 ErrMax= 1.53D-04  0.00D+00 EMaxC= 1.00D-01 BMatC= 1.47D-07 BMatP= 3.14D-05
 IDIUse=3 WtCom= 9.98D-01 WtEn= 1.53D-03
 Coeff-Com: -0.178D-02 0.204D-01 0.613D-01-0.441D+00 0.136D+01
 Coeff-En:   0.000D+00 0.000D+00 0.000D+00 0.000D+00 0.100D+01
 Coeff:     -0.178D-02 0.204D-01 0.612D-01-0.440D+00 0.136D+01
 Gap=     0.697 Goal=   None    Shift=    0.000
 RMSDP=5.86D-05 MaxDP=3.45D-04 DE=-2.83D-05 OVMax= 3.29D-04

 Cycle   6  Pass 1  IDiag  1:
 E= -75.9316762161533     Delta-E=       -0.000000343421 Rises=F Damp=F
 DIIS: error= 1.47D-05 at cycle   6 NSaved=   6.
 NSaved= 6 IEnMin= 6 EnMin= -75.9316762161533     IErMin= 6 ErrMin= 1.47D-05
 ErrMax= 1.47D-05  0.00D+00 EMaxC= 1.00D-01 BMatC= 2.35D-09 BMatP= 1.47D-07
 IDIUse=1 WtCom= 1.00D+00 WtEn= 0.00D+00
 Coeff-Com:  0.335D-03-0.435D-02-0.125D-01 0.103D+00-0.380D+00 0.129D+01
 Coeff:      0.335D-03-0.435D-02-0.125D-01 0.103D+00-0.380D+00 0.129D+01
 Gap=     0.697 Goal=   None    Shift=    0.000
 RMSDP=7.79D-06 MaxDP=4.87D-05 DE=-3.43D-07 OVMax= 3.63D-05

 Cycle   7  Pass 1  IDiag  1:
 E= -75.9316762213829     Delta-E=       -0.000000005230 Rises=F Damp=F
 DIIS: error= 4.20D-06 at cycle   7 NSaved=   7.
 NSaved= 7 IEnMin= 7 EnMin= -75.9316762213829     IErMin= 7 ErrMin= 4.20D-06
 ErrMax= 4.20D-06  0.00D+00 EMaxC= 1.00D-01 BMatC= 1.54D-10 BMatP= 2.35D-09
 IDIUse=1 WtCom= 1.00D+00 WtEn= 0.00D+00
 Coeff-Com: -0.682D-04 0.110D-02 0.289D-02-0.300D-01 0.129D+00-0.643D+00
 Coeff-Com:  0.154D+01
 Coeff:     -0.682D-04 0.110D-02 0.289D-02-0.300D-01 0.129D+00-0.643D+00
 Coeff:      0.154D+01
 Gap=     0.697 Goal=   None    Shift=    0.000
 RMSDP=2.36D-06 MaxDP=9.86D-06 DE=-5.23D-09 OVMax= 1.24D-05

 Cycle   8  Pass 1  IDiag  1:
 E= -75.9316762218544     Delta-E=       -0.000000000472 Rises=F Damp=F
 DIIS: error= 4.94D-07 at cycle   8 NSaved=   8.
 NSaved= 8 IEnMin= 8 EnMin= -75.9316762218544     IErMin= 8 ErrMin= 4.94D-07
 ErrMax= 4.94D-07  0.00D+00 EMaxC= 1.00D-01 BMatC= 3.37D-12 BMatP= 1.54D-10
 IDIUse=1 WtCom= 1.00D+00 WtEn= 0.00D+00
 Coeff-Com: -0.584D-05 0.159D-04 0.115D-03 0.600D-03-0.581D-02 0.539D-01
 Coeff-Com: -0.258D+00 0.121D+01
 Coeff:     -0.584D-05 0.159D-04 0.115D-03 0.600D-03-0.581D-02 0.539D-01
 Coeff:     -0.258D+00 0.121D+01
 Gap=     0.697 Goal=   None    Shift=    0.000
 RMSDP=3.39D-07 MaxDP=1.55D-06 DE=-4.72D-10 OVMax= 1.91D-06

 Cycle   9  Pass 1  IDiag  1:
 E= -75.9316762218635     Delta-E=       -0.000000000009 Rises=F Damp=F
 DIIS: error= 1.01D-07 at cycle   9 NSaved=   9.
 NSaved= 9 IEnMin= 9 EnMin= -75.9316762218635     IErMin= 9 ErrMin= 1.01D-07
 ErrMax= 1.01D-07  0.00D+00 EMaxC= 1.00D-01 BMatC= 6.57D-14 BMatP= 3.37D-12
 IDIUse=1 WtCom= 1.00D+00 WtEn= 0.00D+00
 Coeff-Com:  0.104D-05-0.100D-05-0.155D-04-0.182D-03 0.117D-02-0.845D-02
 Coeff-Com:  0.470D-01-0.336D+00 0.130D+01
 Coeff:      0.104D-05-0.100D-05-0.155D-04-0.182D-03 0.117D-02-0.845D-02
 Coeff:      0.470D-01-0.336D+00 0.130D+01
 Gap=     0.697 Goal=   None    Shift=    0.000
 RMSDP=4.85D-08 MaxDP=1.44D-07 DE=-9.07D-12 OVMax= 3.15D-07

 Cycle  10  Pass 1  IDiag  1:
 E= -75.9316762218636     Delta-E=        0.000000000000 Rises=F Damp=F
 DIIS: error= 3.30D-09 at cycle  10 NSaved=  10.
 NSaved=10 IEnMin=10 EnMin= -75.9316762218636     IErMin=10 ErrMin= 3.30D-09
 ErrMax= 3.30D-09  0.00D+00 EMaxC= 1.00D-01 BMatC= 2.39D-16 BMatP= 6.57D-14
 IDIUse=1 WtCom= 1.00D+00 WtEn= 0.00D+00
 Coeff-Com: -0.223D-06 0.430D-06 0.367D-05 0.277D-04-0.181D-03 0.131D-02
 Coeff-Com: -0.867D-02 0.683D-01-0.297D+00 0.124D+01
 Coeff:     -0.223D-06 0.430D-06 0.367D-05 0.277D-04-0.181D-03 0.131D-02
 Coeff:     -0.867D-02 0.683D-01-0.297D+00 0.124D+01
 Gap=     0.697 Goal=   None    Shift=    0.000
 RMSDP=2.81D-09 MaxDP=7.46D-09 DE=-1.42D-13 OVMax= 1.28D-08

 SCF Done:  E(RHF) =  -75.9316762219     A.U. after   10 cycles
            NFock= 10  Conv=0.28D-08     -V/T= 1.9986
 KE= 7.604189895292D+01 PE=-1.988937587717D+02 EE= 3.767138638360D+01
 Leave Link  502 at Tue Mar 17 12:43:58 2020, MaxMem=    33554432 cpu:         0.1
 (Enter /usr/local/gaussian09d01/g09/l601.exe)
 Copying SCF densities to generalized density rwf, IOpCl= 0 IROHF=0.

 **********************************************************************

            Population analysis using the SCF density.

 **********************************************************************

 Orbital symmetries:
       Occupied  (A1) (A1) (B2) (A1) (B1)
       Virtual   (A1) (B2) (B2) (B1) (A1) (A1) (B2) (A1)
 The electronic state is 1-A1.
 Alpha  occ. eigenvalues --  -20.58147  -1.39631  -0.63080  -0.63073  -0.51523
 Alpha virt. eigenvalues --    0.18215   0.29238   0.97983   1.15352   1.17975
 Alpha virt. eigenvalues --    1.25542   1.35179   1.71650
          Condensed to atoms (all electrons):
               1          2          3
     1  O    8.237325   0.226294   0.226294
     2  H    0.226294   0.495273  -0.066524
     3  H    0.226294  -0.066524   0.495273
 Mulliken charges:
               1
     1  O   -0.689913
     2  H    0.344957
     3  H    0.344957
 Sum of Mulliken charges =   0.00000
 Mulliken charges with hydrogens summed into heavy atoms:
               1
     1  O    0.000000
 Electronic spatial extent (au):  <R**2>=             19.3826
 Charge=              0.0000 electrons
 Dipole moment (field-independent basis, Debye):
    X=              0.0000    Y=              0.0000    Z=             -3.0777  Tot=              3.0777
 Quadrupole moment (field-independent basis, Debye-Ang):
   XX=             -7.2049   YY=             -5.8068   ZZ=             -5.3081
   XY=              0.0000   XZ=              0.0000   YZ=              0.0000
 Traceless Quadrupole moment (field-independent basis, Debye-Ang):
   XX=             -1.0983   YY=              0.2998   ZZ=              0.7985
   XY=              0.0000   XZ=              0.0000   YZ=              0.0000
 Octapole moment (field-independent basis, Debye-Ang**2):
  XXX=              0.0000  YYY=              0.0000  ZZZ=             -2.1205  XYY=              0.0000
  XXY=              0.0000  XXZ=             -0.5246  XZZ=              0.0000  YZZ=              0.0000
  YYZ=             -0.8612  XYZ=              0.0000
 Hexadecapole moment (field-independent basis, Debye-Ang**3):
 XXXX=             -5.1795 YYYY=             -6.3823 ZZZZ=             -6.7258 XXXY=              0.0000
 XXXZ=              0.0000 YYYX=              0.0000 YYYZ=              0.0000 ZZZX=              0.0000
 ZZZY=              0.0000 XXYY=             -1.9703 XXZZ=             -2.1265 YYZZ=             -1.9115
 XXYZ=              0.0000 YYXZ=              0.0000 ZZXY=              0.0000
 N-N= 9.248797213336D+00 E-N=-1.988937588027D+02  KE= 7.604189895292D+01
 Symmetry A1   KE= 6.771333796527D+01
 Symmetry A2   KE= 0.000000000000D+00
 Symmetry B1   KE= 4.619967711053D+00
 Symmetry B2   KE= 3.708593276597D+00
 No NMR shielding tensors so no spin-rotation constants.
 Leave Link  601 at Tue Mar 17 12:43:58 2020, MaxMem=    33554432 cpu:         0.1
 (Enter /usr/local/gaussian09d01/g09/l9999.exe)
 1\1\GINC-KARURA\SP\RHF\6-31G\H2O1\RTAKE\17-Mar-2020\0\\#p HF/6-31G\\ch
 k calc\\0,1\O,0,0.049680185,-0.039736996,-3.149273389\H,0,-0.340042304
 ,-0.433042114,-2.358522225\H,0,0.439402674,0.353568122,-2.358522225\\V
 ersion=ES64L-G09RevD.01\State=1-A1\HF=-75.9316762\RMSD=2.815e-09\Dipol
 e=0.,0.,1.2108651\Quadrupole=-0.3015881,-0.2920765,0.5936646,0.5197076
 ,0.,0.\PG=C02V [C2(O1),SGV(H2)]\\@


 NOTHING PUZZLES ME MORE THAN TIME AND SPACE; AND YET NOTHING TROUBLES ME LESS
                                                          -- CHARLES LAMB (1810)
 Job cpu time:       0 days  0 hours  0 minutes  0.9 seconds.
 File lengths (MBytes):  RWF=      5 Int=      0 D2E=      0 Chk=      1 Scr=      1
 Normal termination of Gaussian 09 at Tue Mar 17 12:43:58 2020.
