 Entering Gaussian System, Link 0=g09
 Input=./h2o_h2h3_50.gjf
 Output=./h2o_h2h3_50.log
 Initial command:
 /usr/local/gaussian09d01/g09/l1.exe "/scr/Gau-12059.inp" -scrdir="/scr/"
 Entering Link 1 = /usr/local/gaussian09d01/g09/l1.exe PID=     12060.
  
 Copyright (c) 1988,1990,1992,1993,1995,1998,2003,2009,2013,
            Gaussian, Inc.  All Rights Reserved.
  
 This is part of the Gaussian(R) 09 program.  It is based on
 the Gaussian(R) 03 system (copyright 2003, Gaussian, Inc.),
 the Gaussian(R) 98 system (copyright 1998, Gaussian, Inc.),
 the Gaussian(R) 94 system (copyright 1995, Gaussian, Inc.),
 the Gaussian 92(TM) system (copyright 1992, Gaussian, Inc.),
 the Gaussian 90(TM) system (copyright 1990, Gaussian, Inc.),
 the Gaussian 88(TM) system (copyright 1988, Gaussian, Inc.),
 the Gaussian 86(TM) system (copyright 1986, Carnegie Mellon
 University), and the Gaussian 82(TM) system (copyright 1983,
 Carnegie Mellon University). Gaussian is a federally registered
 trademark of Gaussian, Inc.
  
 This software contains proprietary and confidential information,
 including trade secrets, belonging to Gaussian, Inc.
  
 This software is provided under written license and may be
 used, copied, transmitted, or stored only in accord with that
 written license.
  
 The following legend is applicable only to US Government
 contracts under FAR:
  
                    RESTRICTED RIGHTS LEGEND
  
 Use, reproduction and disclosure by the US Government is
 subject to restrictions as set forth in subparagraphs (a)
 and (c) of the Commercial Computer Software - Restricted
 Rights clause in FAR 52.227-19.
  
 Gaussian, Inc.
 340 Quinnipiac St., Bldg. 40, Wallingford CT 06492
  
  
 ---------------------------------------------------------------
 Warning -- This program may not be used in any manner that
 competes with the business of Gaussian, Inc. or will provide
 assistance to any competitor of Gaussian, Inc.  The licensee
 of this program is prohibited from giving any competitor of
 Gaussian, Inc. access to this program.  By using this program,
 the user acknowledges that Gaussian, Inc. is engaged in the
 business of creating and licensing software in the field of
 computational chemistry and represents and warrants to the
 licensee that it is not a competitor of Gaussian, Inc. and that
 it will not use this program in any manner prohibited above.
 ---------------------------------------------------------------
  

 Cite this work as:
 Gaussian 09, Revision D.01,
 M. J. Frisch, G. W. Trucks, H. B. Schlegel, G. E. Scuseria, 
 M. A. Robb, J. R. Cheeseman, G. Scalmani, V. Barone, B. Mennucci, 
 G. A. Petersson, H. Nakatsuji, M. Caricato, X. Li, H. P. Hratchian, 
 A. F. Izmaylov, J. Bloino, G. Zheng, J. L. Sonnenberg, M. Hada, 
 M. Ehara, K. Toyota, R. Fukuda, J. Hasegawa, M. Ishida, T. Nakajima, 
 Y. Honda, O. Kitao, H. Nakai, T. Vreven, J. A. Montgomery, Jr., 
 J. E. Peralta, F. Ogliaro, M. Bearpark, J. J. Heyd, E. Brothers, 
 K. N. Kudin, V. N. Staroverov, T. Keith, R. Kobayashi, J. Normand, 
 K. Raghavachari, A. Rendell, J. C. Burant, S. S. Iyengar, J. Tomasi, 
 M. Cossi, N. Rega, J. M. Millam, M. Klene, J. E. Knox, J. B. Cross, 
 V. Bakken, C. Adamo, J. Jaramillo, R. Gomperts, R. E. Stratmann, 
 O. Yazyev, A. J. Austin, R. Cammi, C. Pomelli, J. W. Ochterski, 
 R. L. Martin, K. Morokuma, V. G. Zakrzewski, G. A. Voth, 
 P. Salvador, J. J. Dannenberg, S. Dapprich, A. D. Daniels, 
 O. Farkas, J. B. Foresman, J. V. Ortiz, J. Cioslowski, 
 and D. J. Fox, Gaussian, Inc., Wallingford CT, 2013.
 
 ******************************************
 Gaussian 09:  ES64L-G09RevD.01 24-Apr-2013
                17-Mar-2020 
 ******************************************
 -----------
 #p HF/6-31G
 -----------
 1/38=1/1;
 2/12=2,17=6,18=5,40=1/2;
 3/5=1,6=6,11=9,16=1,25=1,30=1/1,2,3;
 4//1;
 5/5=2,38=5/2;
 6/7=2,8=2,9=2,10=2,28=1/1;
 99/5=1,9=1/99;
 Leave Link    1 at Tue Mar 17 12:43:55 2020, MaxMem=           0 cpu:         0.0
 (Enter /usr/local/gaussian09d01/g09/l101.exe)
 --------
 chk calc
 --------
 Symbolic Z-matrix:
 Charge =  0 Multiplicity = 1
 O                     0.04968  -0.03974  -3.14927 
 H                    -0.23747  -0.32953  -2.27439 
 H                     0.33683   0.25006  -2.27439 
 
 NAtoms=      3 NQM=        3 NQMF=       0 NMMI=      0 NMMIF=      0
                NMic=       0 NMicF=      0.
                    Isotopes and Nuclear Properties:
 (Nuclear quadrupole moments (NQMom) in fm**2, nuclear magnetic moments (NMagM)
  in nuclear magnetons)

  Atom         1           2           3
 IAtWgt=          16           1           1
 AtmWgt=  15.9949146   1.0078250   1.0078250
 NucSpn=           0           1           1
 AtZEff=   0.0000000   0.0000000   0.0000000
 NQMom=    0.0000000   0.0000000   0.0000000
 NMagM=    0.0000000   2.7928460   2.7928460
 AtZNuc=   8.0000000   1.0000000   1.0000000
 Leave Link  101 at Tue Mar 17 12:43:55 2020, MaxMem=    33554432 cpu:         0.1
 (Enter /usr/local/gaussian09d01/g09/l202.exe)
                          Input orientation:                          
 ---------------------------------------------------------------------
 Center     Atomic      Atomic             Coordinates (Angstroms)
 Number     Number       Type             X           Y           Z
 ---------------------------------------------------------------------
      1          8           0        0.049680   -0.039737   -3.149273
      2          1           0       -0.237472   -0.329529   -2.274388
      3          1           0        0.336833    0.250055   -2.274388
 ---------------------------------------------------------------------
                    Distance matrix (angstroms):
                    1          2          3
     1  O    0.000000
     2  H    0.965329   0.000000
     3  H    0.965329   0.815931   0.000000
 Stoichiometry    H2O
 Framework group  C2V[C2(O),SGV(H2)]
 Deg. of freedom     2
 Full point group                 C2V     NOp   4
 Largest Abelian subgroup         C2V     NOp   4
 Largest concise Abelian subgroup C2      NOp   2
                         Standard orientation:                         
 ---------------------------------------------------------------------
 Center     Atomic      Atomic             Coordinates (Angstroms)
 Number     Number       Type             X           Y           Z
 ---------------------------------------------------------------------
      1          8           0        0.000000    0.000000    0.174977
      2          1           0        0.000000    0.407966   -0.699908
      3          1           0        0.000000   -0.407966   -0.699908
 ---------------------------------------------------------------------
 Rotational constants (GHZ):   1506.4506093    368.8462706    296.2990527
 Leave Link  202 at Tue Mar 17 12:43:55 2020, MaxMem=    33554432 cpu:         0.0
 (Enter /usr/local/gaussian09d01/g09/l301.exe)
 Standard basis: 6-31G (6D, 7F)
 Ernie: Thresh=  0.10000D-02 Tol=  0.10000D-05 Strict=F.
 There are     7 symmetry adapted cartesian basis functions of A1  symmetry.
 There are     0 symmetry adapted cartesian basis functions of A2  symmetry.
 There are     2 symmetry adapted cartesian basis functions of B1  symmetry.
 There are     4 symmetry adapted cartesian basis functions of B2  symmetry.
 There are     7 symmetry adapted basis functions of A1  symmetry.
 There are     0 symmetry adapted basis functions of A2  symmetry.
 There are     2 symmetry adapted basis functions of B1  symmetry.
 There are     4 symmetry adapted basis functions of B2  symmetry.
    13 basis functions,    30 primitive gaussians,    13 cartesian basis functions
     5 alpha electrons        5 beta electrons
       nuclear repulsion energy         9.4194891044 Hartrees.
 IExCor=    0 DFT=F Ex=HF Corr=None ExCW=0 ScaHFX=  1.000000
 ScaDFX=  1.000000  1.000000  1.000000  1.000000 ScalE2=  1.000000  1.000000
 IRadAn=      0 IRanWt=     -1 IRanGd=            0 ICorTp=0 IEmpDi=  4
 NAtoms=    3 NActive=    3 NUniq=    2 SFac= 2.25D+00 NAtFMM=   60 NAOKFM=F Big=F
 Integral buffers will be    131072 words long.
 Raffenetti 1 integral format.
 Two-electron integral symmetry is turned on.
 Leave Link  301 at Tue Mar 17 12:43:56 2020, MaxMem=    33554432 cpu:         0.1
 (Enter /usr/local/gaussian09d01/g09/l302.exe)
 NPDir=0 NMtPBC=     1 NCelOv=     1 NCel=       1 NClECP=     1 NCelD=      1
         NCelK=      1 NCelE2=     1 NClLst=     1 CellRange=     0.0.
 One-electron integrals computed using PRISM.
 One-electron integral symmetry used in STVInt
 NBasis=    13 RedAO= T EigKep=  7.06D-02  NBF=     7     0     2     4
 NBsUse=    13 1.00D-06 EigRej= -1.00D+00 NBFU=     7     0     2     4
 Leave Link  302 at Tue Mar 17 12:43:56 2020, MaxMem=    33554432 cpu:         0.1
 (Enter /usr/local/gaussian09d01/g09/l303.exe)
 DipDrv:  MaxL=1.
 Leave Link  303 at Tue Mar 17 12:43:56 2020, MaxMem=    33554432 cpu:         0.1
 (Enter /usr/local/gaussian09d01/g09/l401.exe)
 ExpMin= 1.61D-01 ExpMax= 5.48D+03 ExpMxC= 8.25D+02 IAcc=1 IRadAn=         1 AccDes= 0.00D+00
 Harris functional with IExCor=  205 and IRadAn=       1 diagonalized for initial guess.
 HarFok:  IExCor=  205 AccDes= 0.00D+00 IRadAn=         1 IDoV= 1 UseB2=F ITyADJ=14
 ICtDFT=  3500011 ScaDFX=  1.000000  1.000000  1.000000  1.000000
 FoFCou: FMM=F IPFlag=           0 FMFlag=      100000 FMFlg1=           0
         NFxFlg=           0 DoJE=T BraDBF=F KetDBF=T FulRan=T
         wScrn=  0.000000 ICntrl=     500 IOpCl=  0 I1Cent=   200000004 NGrid=           0
         NMat0=    1 NMatS0=      1 NMatT0=    0 NMatD0=    1 NMtDS0=    0 NMtDT0=    0
 Petite list used in FoFCou.
 Harris En= -75.9722000136866    
 JPrj=0 DoOrth=F DoCkMO=F.
 Initial guess orbital symmetries:
       Occupied  (A1) (A1) (A1) (B2) (B1)
       Virtual   (A1) (B2) (A1) (B1) (B2) (A1) (B2) (A1)
 The electronic state of the initial guess is 1-A1.
 Leave Link  401 at Tue Mar 17 12:43:56 2020, MaxMem=    33554432 cpu:         0.1
 (Enter /usr/local/gaussian09d01/g09/l502.exe)
 Closed shell SCF:
 Using DIIS extrapolation, IDIIS=  1040.
 Integral symmetry usage will be decided dynamically.
 Keep R1 ints in memory in symmetry-blocked form, NReq=829701.
 IVT=       20197 IEndB=       20197 NGot=    33554432 MDV=    33532255
 LenX=    33532255 LenY=    33531373
 Requested convergence on RMS density matrix=1.00D-08 within 128 cycles.
 Requested convergence on MAX density matrix=1.00D-06.
 Requested convergence on             energy=1.00D-06.
 No special actions if energy rises.
 FoFCou: FMM=F IPFlag=           0 FMFlag=           0 FMFlg1=           0
         NFxFlg=           0 DoJE=F BraDBF=F KetDBF=F FulRan=T
         wScrn=  0.000000 ICntrl=     600 IOpCl=  0 I1Cent=           0 NGrid=           0
         NMat0=    1 NMatS0=     91 NMatT0=    0 NMatD0=    1 NMtDS0=    0 NMtDT0=    0
 Petite list used in FoFCou.

 Cycle   1  Pass 1  IDiag  1:
 E= -75.7702874520592    
 DIIS: error= 8.73D-02 at cycle   1 NSaved=   1.
 NSaved= 1 IEnMin= 1 EnMin= -75.7702874520592     IErMin= 1 ErrMin= 8.73D-02
 ErrMax= 8.73D-02  0.00D+00 EMaxC= 1.00D-01 BMatC= 1.20D-01 BMatP= 1.20D-01
 IDIUse=3 WtCom= 1.27D-01 WtEn= 8.73D-01
 Coeff-Com:  0.100D+01
 Coeff-En:   0.100D+01
 Coeff:      0.100D+01
 Gap=     0.558 Goal=   None    Shift=    0.000
 GapD=    0.558 DampG=2.000 DampE=0.500 DampFc=1.0000 IDamp=-1.
 RMSDP=3.11D-02 MaxDP=1.50D-01              OVMax= 1.33D-01

 Cycle   2  Pass 1  IDiag  1:
 E= -75.8276006070299     Delta-E=       -0.057313154971 Rises=F Damp=F
 DIIS: error= 5.72D-02 at cycle   2 NSaved=   2.
 NSaved= 2 IEnMin= 2 EnMin= -75.8276006070299     IErMin= 2 ErrMin= 5.72D-02
 ErrMax= 5.72D-02  0.00D+00 EMaxC= 1.00D-01 BMatC= 4.75D-02 BMatP= 1.20D-01
 IDIUse=3 WtCom= 4.28D-01 WtEn= 5.72D-01
 Coeff-Com:  0.378D+00 0.622D+00
 Coeff-En:   0.155D+00 0.845D+00
 Coeff:      0.250D+00 0.750D+00
 Gap=     0.708 Goal=   None    Shift=    0.000
 RMSDP=1.58D-02 MaxDP=9.55D-02 DE=-5.73D-02 OVMax= 5.44D-02

 Cycle   3  Pass 1  IDiag  1:
 E= -75.8595278929018     Delta-E=       -0.031927285872 Rises=F Damp=F
 DIIS: error= 1.25D-02 at cycle   3 NSaved=   3.
 NSaved= 3 IEnMin= 3 EnMin= -75.8595278929018     IErMin= 3 ErrMin= 1.25D-02
 ErrMax= 1.25D-02  0.00D+00 EMaxC= 1.00D-01 BMatC= 2.34D-03 BMatP= 4.75D-02
 IDIUse=3 WtCom= 8.75D-01 WtEn= 1.25D-01
 Coeff-Com: -0.413D-01 0.138D+00 0.904D+00
 Coeff-En:   0.000D+00 0.000D+00 0.100D+01
 Coeff:     -0.362D-01 0.121D+00 0.916D+00
 Gap=     0.684 Goal=   None    Shift=    0.000
 RMSDP=2.80D-03 MaxDP=1.38D-02 DE=-3.19D-02 OVMax= 1.25D-02

 Cycle   4  Pass 1  IDiag  1:
 E= -75.8613785156485     Delta-E=       -0.001850622747 Rises=F Damp=F
 DIIS: error= 1.74D-03 at cycle   4 NSaved=   4.
 NSaved= 4 IEnMin= 4 EnMin= -75.8613785156485     IErMin= 4 ErrMin= 1.74D-03
 ErrMax= 1.74D-03  0.00D+00 EMaxC= 1.00D-01 BMatC= 3.01D-05 BMatP= 2.34D-03
 IDIUse=3 WtCom= 9.83D-01 WtEn= 1.74D-02
 Coeff-Com:  0.963D-02-0.824D-01-0.314D+00 0.139D+01
 Coeff-En:   0.000D+00 0.000D+00 0.000D+00 0.100D+01
 Coeff:      0.946D-02-0.810D-01-0.309D+00 0.138D+01
 Gap=     0.688 Goal=   None    Shift=    0.000
 RMSDP=5.81D-04 MaxDP=2.50D-03 DE=-1.85D-03 OVMax= 2.61D-03

 Cycle   5  Pass 1  IDiag  1:
 E= -75.8614211930060     Delta-E=       -0.000042677357 Rises=F Damp=F
 DIIS: error= 2.31D-04 at cycle   5 NSaved=   5.
 NSaved= 5 IEnMin= 5 EnMin= -75.8614211930060     IErMin= 5 ErrMin= 2.31D-04
 ErrMax= 2.31D-04  0.00D+00 EMaxC= 1.00D-01 BMatC= 5.17D-07 BMatP= 3.01D-05
 IDIUse=3 WtCom= 9.98D-01 WtEn= 2.31D-03
 Coeff-Com: -0.300D-02 0.325D-01 0.109D+00-0.658D+00 0.152D+01
 Coeff-En:   0.000D+00 0.000D+00 0.000D+00 0.000D+00 0.100D+01
 Coeff:     -0.299D-02 0.324D-01 0.109D+00-0.657D+00 0.152D+01
 Gap=     0.689 Goal=   None    Shift=    0.000
 RMSDP=1.77D-04 MaxDP=7.11D-04 DE=-4.27D-05 OVMax= 9.26D-04

 Cycle   6  Pass 1  IDiag  1:
 E= -75.8614229853914     Delta-E=       -0.000001792385 Rises=F Damp=F
 DIIS: error= 4.23D-05 at cycle   6 NSaved=   6.
 NSaved= 6 IEnMin= 6 EnMin= -75.8614229853914     IErMin= 6 ErrMin= 4.23D-05
 ErrMax= 4.23D-05  0.00D+00 EMaxC= 1.00D-01 BMatC= 1.96D-08 BMatP= 5.17D-07
 IDIUse=1 WtCom= 1.00D+00 WtEn= 0.00D+00
 Coeff-Com:  0.731D-03-0.953D-02-0.308D-01 0.217D+00-0.610D+00 0.143D+01
 Coeff:      0.731D-03-0.953D-02-0.308D-01 0.217D+00-0.610D+00 0.143D+01
 Gap=     0.689 Goal=   None    Shift=    0.000
 RMSDP=3.00D-05 MaxDP=1.15D-04 DE=-1.79D-06 OVMax= 1.21D-04

 Cycle   7  Pass 1  IDiag  1:
 E= -75.8614230318366     Delta-E=       -0.000000046445 Rises=F Damp=F
 DIIS: error= 7.58D-06 at cycle   7 NSaved=   7.
 NSaved= 7 IEnMin= 7 EnMin= -75.8614230318366     IErMin= 7 ErrMin= 7.58D-06
 ErrMax= 7.58D-06  0.00D+00 EMaxC= 1.00D-01 BMatC= 4.72D-10 BMatP= 1.96D-08
 IDIUse=1 WtCom= 1.00D+00 WtEn= 0.00D+00
 Coeff-Com: -0.852D-04 0.142D-02 0.432D-02-0.381D-01 0.120D+00-0.430D+00
 Coeff-Com:  0.134D+01
 Coeff:     -0.852D-04 0.142D-02 0.432D-02-0.381D-01 0.120D+00-0.430D+00
 Coeff:      0.134D+01
 Gap=     0.689 Goal=   None    Shift=    0.000
 RMSDP=5.21D-06 MaxDP=1.86D-05 DE=-4.64D-08 OVMax= 2.40D-05

 Cycle   8  Pass 1  IDiag  1:
 E= -75.8614230330056     Delta-E=       -0.000000001169 Rises=F Damp=F
 DIIS: error= 7.09D-07 at cycle   8 NSaved=   8.
 NSaved= 8 IEnMin= 8 EnMin= -75.8614230330056     IErMin= 8 ErrMin= 7.09D-07
 ErrMax= 7.09D-07  0.00D+00 EMaxC= 1.00D-01 BMatC= 3.81D-12 BMatP= 4.72D-10
 IDIUse=1 WtCom= 1.00D+00 WtEn= 0.00D+00
 Coeff-Com: -0.496D-05 0.155D-05 0.574D-04 0.104D-02-0.466D-02 0.291D-01
 Coeff-Com: -0.143D+00 0.112D+01
 Coeff:     -0.496D-05 0.155D-05 0.574D-04 0.104D-02-0.466D-02 0.291D-01
 Coeff:     -0.143D+00 0.112D+01
 Gap=     0.689 Goal=   None    Shift=    0.000
 RMSDP=2.02D-07 MaxDP=1.24D-06 DE=-1.17D-09 OVMax= 3.10D-07

 Cycle   9  Pass 1  IDiag  1:
 E= -75.8614230330102     Delta-E=       -0.000000000005 Rises=F Damp=F
 DIIS: error= 8.74D-08 at cycle   9 NSaved=   9.
 NSaved= 9 IEnMin= 9 EnMin= -75.8614230330102     IErMin= 9 ErrMin= 8.74D-08
 ErrMax= 8.74D-08  0.00D+00 EMaxC= 1.00D-01 BMatC= 4.13D-14 BMatP= 3.81D-12
 IDIUse=1 WtCom= 1.00D+00 WtEn= 0.00D+00
 Coeff-Com:  0.467D-06 0.212D-05 0.133D-05-0.188D-03 0.623D-03-0.277D-02
 Coeff-Com:  0.128D-01-0.198D+00 0.119D+01
 Coeff:      0.467D-06 0.212D-05 0.133D-05-0.188D-03 0.623D-03-0.277D-02
 Coeff:      0.128D-01-0.198D+00 0.119D+01
 Gap=     0.689 Goal=   None    Shift=    0.000
 RMSDP=2.61D-08 MaxDP=7.70D-08 DE=-4.62D-12 OVMax= 1.40D-07

 Cycle  10  Pass 1  IDiag  1:
 E= -75.8614230330102     Delta-E=        0.000000000000 Rises=F Damp=F
 DIIS: error= 4.00D-09 at cycle  10 NSaved=  10.
 NSaved=10 IEnMin= 9 EnMin= -75.8614230330102     IErMin=10 ErrMin= 4.00D-09
 ErrMax= 4.00D-09  0.00D+00 EMaxC= 1.00D-01 BMatC= 2.74D-16 BMatP= 4.13D-14
 IDIUse=1 WtCom= 1.00D+00 WtEn= 0.00D+00
 Coeff-Com: -0.141D-06 0.608D-07 0.144D-05 0.263D-04-0.864D-04 0.370D-03
 Coeff-Com: -0.200D-02 0.455D-01-0.318D+00 0.127D+01
 Coeff:     -0.141D-06 0.608D-07 0.144D-05 0.263D-04-0.864D-04 0.370D-03
 Coeff:     -0.200D-02 0.455D-01-0.318D+00 0.127D+01
 Gap=     0.689 Goal=   None    Shift=    0.000
 RMSDP=3.19D-09 MaxDP=1.20D-08 DE= 0.00D+00 OVMax= 1.30D-08

 SCF Done:  E(RHF) =  -75.8614230330     A.U. after   10 cycles
            NFock= 10  Conv=0.32D-08     -V/T= 1.9963
 KE= 7.614023475507D+01 PE=-1.990952850131D+02 EE= 3.767413812060D+01
 Leave Link  502 at Tue Mar 17 12:43:56 2020, MaxMem=    33554432 cpu:         0.1
 (Enter /usr/local/gaussian09d01/g09/l601.exe)
 Copying SCF densities to generalized density rwf, IOpCl= 0 IROHF=0.

 **********************************************************************

            Population analysis using the SCF density.

 **********************************************************************

 Orbital symmetries:
       Occupied  (A1) (A1) (A1) (B2) (B1)
       Virtual   (A1) (B2) (A1) (B2) (B1) (A1) (B2) (A1)
 The electronic state is 1-A1.
 Alpha  occ. eigenvalues --  -20.58727  -1.43071  -0.68407  -0.58105  -0.52028
 Alpha virt. eigenvalues --    0.16838   0.29996   0.99571   1.09926   1.14985
 Alpha virt. eigenvalues --    1.23038   1.34818   1.57746
          Condensed to atoms (all electrons):
               1          2          3
     1  O    8.291638   0.161569   0.161569
     2  H    0.161569   0.594281  -0.063238
     3  H    0.161569  -0.063238   0.594281
 Mulliken charges:
               1
     1  O   -0.614775
     2  H    0.307388
     3  H    0.307388
 Sum of Mulliken charges =   0.00000
 Mulliken charges with hydrogens summed into heavy atoms:
               1
     1  O    0.000000
 Electronic spatial extent (au):  <R**2>=             19.3508
 Charge=              0.0000 electrons
 Dipole moment (field-independent basis, Debye):
    X=              0.0000    Y=              0.0000    Z=             -3.1579  Tot=              3.1579
 Quadrupole moment (field-independent basis, Debye-Ang):
   XX=             -7.1634   YY=             -6.5240   ZZ=             -4.8588
   XY=              0.0000   XZ=              0.0000   YZ=              0.0000
 Traceless Quadrupole moment (field-independent basis, Debye-Ang):
   XX=             -0.9814   YY=             -0.3419   ZZ=              1.3233
   XY=              0.0000   XZ=              0.0000   YZ=              0.0000
 Octapole moment (field-independent basis, Debye-Ang**2):
  XXX=              0.0000  YYY=              0.0000  ZZZ=             -2.1890  XYY=              0.0000
  XXY=              0.0000  XXZ=             -0.5744  XZZ=              0.0000  YZZ=              0.0000
  YYZ=             -0.6106  XYZ=              0.0000
 Hexadecapole moment (field-independent basis, Debye-Ang**3):
 XXXX=             -5.1342 YYYY=             -6.2084 ZZZZ=             -6.8120 XXXY=              0.0000
 XXXZ=              0.0000 YYYX=              0.0000 YYYZ=              0.0000 ZZZX=              0.0000
 ZZZY=              0.0000 XXYY=             -1.8969 XXZZ=             -2.1795 YYZZ=             -2.1233
 XXYZ=              0.0000 YYXZ=              0.0000 ZZXY=              0.0000
 N-N= 9.419489104371D+00 E-N=-1.990952850370D+02  KE= 7.614023475507D+01
 Symmetry A1   KE= 6.750625261022D+01
 Symmetry A2   KE= 0.000000000000D+00
 Symmetry B1   KE= 4.639051629487D+00
 Symmetry B2   KE= 3.994930515361D+00
 No NMR shielding tensors so no spin-rotation constants.
 Leave Link  601 at Tue Mar 17 12:43:56 2020, MaxMem=    33554432 cpu:         0.1
 (Enter /usr/local/gaussian09d01/g09/l9999.exe)
 1\1\GINC-KARURA\SP\RHF\6-31G\H2O1\RTAKE\17-Mar-2020\0\\#p HF/6-31G\\ch
 k calc\\0,1\O,0,0.049680185,-0.039736996,-3.149273389\H,0,-0.237472198
 ,-0.329529105,-2.274388265\H,0,0.336832569,0.250055113,-2.274388265\\V
 ersion=ES64L-G09RevD.01\State=1-A1\HF=-75.861423\RMSD=3.194e-09\Dipole
 =0.,0.,1.2424017\Quadrupole=-0.4940859,-0.4897357,0.9838216,0.2376934,
 0.,0.\PG=C02V [C2(O1),SGV(H2)]\\@


 NEVER LOSE YOUR IGNORANCE, IT CAN'T BE REPLACED.
   -- ANDY CAPP
 Job cpu time:       0 days  0 hours  0 minutes  0.9 seconds.
 File lengths (MBytes):  RWF=      5 Int=      0 D2E=      0 Chk=      1 Scr=      1
 Normal termination of Gaussian 09 at Tue Mar 17 12:43:56 2020.
