 Entering Gaussian System, Link 0=g09
 Input=./h2o_h2h3_110.gjf
 Output=./h2o_h2h3_110.log
 Initial command:
 /usr/local/gaussian09d01/g09/l1.exe "/scr/Gau-12077.inp" -scrdir="/scr/"
 Entering Link 1 = /usr/local/gaussian09d01/g09/l1.exe PID=     12078.
  
 Copyright (c) 1988,1990,1992,1993,1995,1998,2003,2009,2013,
            Gaussian, Inc.  All Rights Reserved.
  
 This is part of the Gaussian(R) 09 program.  It is based on
 the Gaussian(R) 03 system (copyright 2003, Gaussian, Inc.),
 the Gaussian(R) 98 system (copyright 1998, Gaussian, Inc.),
 the Gaussian(R) 94 system (copyright 1995, Gaussian, Inc.),
 the Gaussian 92(TM) system (copyright 1992, Gaussian, Inc.),
 the Gaussian 90(TM) system (copyright 1990, Gaussian, Inc.),
 the Gaussian 88(TM) system (copyright 1988, Gaussian, Inc.),
 the Gaussian 86(TM) system (copyright 1986, Carnegie Mellon
 University), and the Gaussian 82(TM) system (copyright 1983,
 Carnegie Mellon University). Gaussian is a federally registered
 trademark of Gaussian, Inc.
  
 This software contains proprietary and confidential information,
 including trade secrets, belonging to Gaussian, Inc.
  
 This software is provided under written license and may be
 used, copied, transmitted, or stored only in accord with that
 written license.
  
 The following legend is applicable only to US Government
 contracts under FAR:
  
                    RESTRICTED RIGHTS LEGEND
  
 Use, reproduction and disclosure by the US Government is
 subject to restrictions as set forth in subparagraphs (a)
 and (c) of the Commercial Computer Software - Restricted
 Rights clause in FAR 52.227-19.
  
 Gaussian, Inc.
 340 Quinnipiac St., Bldg. 40, Wallingford CT 06492
  
  
 ---------------------------------------------------------------
 Warning -- This program may not be used in any manner that
 competes with the business of Gaussian, Inc. or will provide
 assistance to any competitor of Gaussian, Inc.  The licensee
 of this program is prohibited from giving any competitor of
 Gaussian, Inc. access to this program.  By using this program,
 the user acknowledges that Gaussian, Inc. is engaged in the
 business of creating and licensing software in the field of
 computational chemistry and represents and warrants to the
 licensee that it is not a competitor of Gaussian, Inc. and that
 it will not use this program in any manner prohibited above.
 ---------------------------------------------------------------
  

 Cite this work as:
 Gaussian 09, Revision D.01,
 M. J. Frisch, G. W. Trucks, H. B. Schlegel, G. E. Scuseria, 
 M. A. Robb, J. R. Cheeseman, G. Scalmani, V. Barone, B. Mennucci, 
 G. A. Petersson, H. Nakatsuji, M. Caricato, X. Li, H. P. Hratchian, 
 A. F. Izmaylov, J. Bloino, G. Zheng, J. L. Sonnenberg, M. Hada, 
 M. Ehara, K. Toyota, R. Fukuda, J. Hasegawa, M. Ishida, T. Nakajima, 
 Y. Honda, O. Kitao, H. Nakai, T. Vreven, J. A. Montgomery, Jr., 
 J. E. Peralta, F. Ogliaro, M. Bearpark, J. J. Heyd, E. Brothers, 
 K. N. Kudin, V. N. Staroverov, T. Keith, R. Kobayashi, J. Normand, 
 K. Raghavachari, A. Rendell, J. C. Burant, S. S. Iyengar, J. Tomasi, 
 M. Cossi, N. Rega, J. M. Millam, M. Klene, J. E. Knox, J. B. Cross, 
 V. Bakken, C. Adamo, J. Jaramillo, R. Gomperts, R. E. Stratmann, 
 O. Yazyev, A. J. Austin, R. Cammi, C. Pomelli, J. W. Ochterski, 
 R. L. Martin, K. Morokuma, V. G. Zakrzewski, G. A. Voth, 
 P. Salvador, J. J. Dannenberg, S. Dapprich, A. D. Daniels, 
 O. Farkas, J. B. Foresman, J. V. Ortiz, J. Cioslowski, 
 and D. J. Fox, Gaussian, Inc., Wallingford CT, 2013.
 
 ******************************************
 Gaussian 09:  ES64L-G09RevD.01 24-Apr-2013
                17-Mar-2020 
 ******************************************
 -----------
 #p HF/6-31G
 -----------
 1/38=1/1;
 2/12=2,17=6,18=5,40=1/2;
 3/5=1,6=6,11=9,16=1,25=1,30=1/1,2,3;
 4//1;
 5/5=2,38=5/2;
 6/7=2,8=2,9=2,10=2,28=1/1;
 99/5=1,9=1/99;
 Leave Link    1 at Tue Mar 17 12:44:01 2020, MaxMem=           0 cpu:         0.0
 (Enter /usr/local/gaussian09d01/g09/l101.exe)
 --------
 chk calc
 --------
 Symbolic Z-matrix:
 Charge =  0 Multiplicity = 1
 O                     0.04968  -0.03974  -3.14927 
 H                    -0.5069   -0.60143  -2.59558 
 H                     0.60626   0.52196  -2.59558 
 
 NAtoms=      3 NQM=        3 NQMF=       0 NMMI=      0 NMMIF=      0
                NMic=       0 NMicF=      0.
                    Isotopes and Nuclear Properties:
 (Nuclear quadrupole moments (NQMom) in fm**2, nuclear magnetic moments (NMagM)
  in nuclear magnetons)

  Atom         1           2           3
 IAtWgt=          16           1           1
 AtmWgt=  15.9949146   1.0078250   1.0078250
 NucSpn=           0           1           1
 AtZEff=   0.0000000   0.0000000   0.0000000
 NQMom=    0.0000000   0.0000000   0.0000000
 NMagM=    0.0000000   2.7928460   2.7928460
 AtZNuc=   8.0000000   1.0000000   1.0000000
 Leave Link  101 at Tue Mar 17 12:44:01 2020, MaxMem=    33554432 cpu:         0.1
 (Enter /usr/local/gaussian09d01/g09/l202.exe)
                          Input orientation:                          
 ---------------------------------------------------------------------
 Center     Atomic      Atomic             Coordinates (Angstroms)
 Number     Number       Type             X           Y           Z
 ---------------------------------------------------------------------
      1          8           0        0.049680   -0.039737   -3.149273
      2          1           0       -0.506901   -0.601435   -2.595583
      3          1           0        0.606262    0.521961   -2.595583
 ---------------------------------------------------------------------
                    Distance matrix (angstroms):
                    1          2          3
     1  O    0.000000
     2  H    0.965329   0.000000
     3  H    0.965329   1.581502   0.000000
 Stoichiometry    H2O
 Framework group  C2V[C2(O),SGV(H2)]
 Deg. of freedom     2
 Full point group                 C2V     NOp   4
 Largest Abelian subgroup         C2V     NOp   4
 Largest concise Abelian subgroup C2      NOp   2
                         Standard orientation:                         
 ---------------------------------------------------------------------
 Center     Atomic      Atomic             Coordinates (Angstroms)
 Number     Number       Type             X           Y           Z
 ---------------------------------------------------------------------
      1          8           0        0.000000    0.000000    0.110738
      2          1           0        0.000000    0.790751   -0.442952
      3          1           0        0.000000   -0.790751   -0.442952
 ---------------------------------------------------------------------
 Rotational constants (GHZ):    920.9036967    400.9796922    279.3466382
 Leave Link  202 at Tue Mar 17 12:44:01 2020, MaxMem=    33554432 cpu:         0.1
 (Enter /usr/local/gaussian09d01/g09/l301.exe)
 Standard basis: 6-31G (6D, 7F)
 Ernie: Thresh=  0.10000D-02 Tol=  0.10000D-05 Strict=F.
 There are     7 symmetry adapted cartesian basis functions of A1  symmetry.
 There are     0 symmetry adapted cartesian basis functions of A2  symmetry.
 There are     2 symmetry adapted cartesian basis functions of B1  symmetry.
 There are     4 symmetry adapted cartesian basis functions of B2  symmetry.
 There are     7 symmetry adapted basis functions of A1  symmetry.
 There are     0 symmetry adapted basis functions of A2  symmetry.
 There are     2 symmetry adapted basis functions of B1  symmetry.
 There are     4 symmetry adapted basis functions of B2  symmetry.
    13 basis functions,    30 primitive gaussians,    13 cartesian basis functions
     5 alpha electrons        5 beta electrons
       nuclear repulsion energy         9.1055371264 Hartrees.
 IExCor=    0 DFT=F Ex=HF Corr=None ExCW=0 ScaHFX=  1.000000
 ScaDFX=  1.000000  1.000000  1.000000  1.000000 ScalE2=  1.000000  1.000000
 IRadAn=      0 IRanWt=     -1 IRanGd=            0 ICorTp=0 IEmpDi=  4
 NAtoms=    3 NActive=    3 NUniq=    2 SFac= 2.25D+00 NAtFMM=   60 NAOKFM=F Big=F
 Integral buffers will be    131072 words long.
 Raffenetti 1 integral format.
 Two-electron integral symmetry is turned on.
 Leave Link  301 at Tue Mar 17 12:44:01 2020, MaxMem=    33554432 cpu:         0.1
 (Enter /usr/local/gaussian09d01/g09/l302.exe)
 NPDir=0 NMtPBC=     1 NCelOv=     1 NCel=       1 NClECP=     1 NCelD=      1
         NCelK=      1 NCelE2=     1 NClLst=     1 CellRange=     0.0.
 One-electron integrals computed using PRISM.
 One-electron integral symmetry used in STVInt
 NBasis=    13 RedAO= T EigKep=  1.20D-01  NBF=     7     0     2     4
 NBsUse=    13 1.00D-06 EigRej= -1.00D+00 NBFU=     7     0     2     4
 Leave Link  302 at Tue Mar 17 12:44:02 2020, MaxMem=    33554432 cpu:         0.2
 (Enter /usr/local/gaussian09d01/g09/l303.exe)
 DipDrv:  MaxL=1.
 Leave Link  303 at Tue Mar 17 12:44:02 2020, MaxMem=    33554432 cpu:         0.1
 (Enter /usr/local/gaussian09d01/g09/l401.exe)
 ExpMin= 1.61D-01 ExpMax= 5.48D+03 ExpMxC= 8.25D+02 IAcc=1 IRadAn=         1 AccDes= 0.00D+00
 Harris functional with IExCor=  205 and IRadAn=       1 diagonalized for initial guess.
 HarFok:  IExCor=  205 AccDes= 0.00D+00 IRadAn=         1 IDoV= 1 UseB2=F ITyADJ=14
 ICtDFT=  3500011 ScaDFX=  1.000000  1.000000  1.000000  1.000000
 FoFCou: FMM=F IPFlag=           0 FMFlag=      100000 FMFlg1=           0
         NFxFlg=           0 DoJE=T BraDBF=F KetDBF=T FulRan=T
         wScrn=  0.000000 ICntrl=     500 IOpCl=  0 I1Cent=   200000004 NGrid=           0
         NMat0=    1 NMatS0=      1 NMatT0=    0 NMatD0=    1 NMtDS0=    0 NMtDT0=    0
 Petite list used in FoFCou.
 Harris En= -76.0875329813779    
 JPrj=0 DoOrth=F DoCkMO=F.
 Initial guess orbital symmetries:
       Occupied  (A1) (A1) (B2) (A1) (B1)
       Virtual   (A1) (B2) (A1) (B1) (B2) (A1) (B2) (A1)
 The electronic state of the initial guess is 1-A1.
 Leave Link  401 at Tue Mar 17 12:44:02 2020, MaxMem=    33554432 cpu:         0.1
 (Enter /usr/local/gaussian09d01/g09/l502.exe)
 Closed shell SCF:
 Using DIIS extrapolation, IDIIS=  1040.
 Integral symmetry usage will be decided dynamically.
 Keep R1 ints in memory in symmetry-blocked form, NReq=829687.
 IVT=       20197 IEndB=       20197 NGot=    33554432 MDV=    33532255
 LenX=    33532255 LenY=    33531373
 Requested convergence on RMS density matrix=1.00D-08 within 128 cycles.
 Requested convergence on MAX density matrix=1.00D-06.
 Requested convergence on             energy=1.00D-06.
 No special actions if energy rises.
 FoFCou: FMM=F IPFlag=           0 FMFlag=           0 FMFlg1=           0
         NFxFlg=           0 DoJE=F BraDBF=F KetDBF=F FulRan=T
         wScrn=  0.000000 ICntrl=     600 IOpCl=  0 I1Cent=           0 NGrid=           0
         NMat0=    1 NMatS0=     91 NMatT0=    0 NMatD0=    1 NMtDS0=    0 NMtDT0=    0
 Petite list used in FoFCou.

 Cycle   1  Pass 1  IDiag  1:
 E= -75.9011432919323    
 DIIS: error= 9.46D-02 at cycle   1 NSaved=   1.
 NSaved= 1 IEnMin= 1 EnMin= -75.9011432919323     IErMin= 1 ErrMin= 9.46D-02
 ErrMax= 9.46D-02  0.00D+00 EMaxC= 1.00D-01 BMatC= 1.17D-01 BMatP= 1.17D-01
 IDIUse=3 WtCom= 5.38D-02 WtEn= 9.46D-01
 Coeff-Com:  0.100D+01
 Coeff-En:   0.100D+01
 Coeff:      0.100D+01
 Gap=     0.575 Goal=   None    Shift=    0.000
 GapD=    0.575 DampG=2.000 DampE=0.500 DampFc=1.0000 IDamp=-1.
 RMSDP=2.31D-02 MaxDP=1.24D-01              OVMax= 1.21D-01

 Cycle   2  Pass 1  IDiag  1:
 E= -75.9569148758202     Delta-E=       -0.055771583888 Rises=F Damp=F
 DIIS: error= 5.31D-02 at cycle   2 NSaved=   2.
 NSaved= 2 IEnMin= 2 EnMin= -75.9569148758202     IErMin= 2 ErrMin= 5.31D-02
 ErrMax= 5.31D-02  0.00D+00 EMaxC= 1.00D-01 BMatC= 4.04D-02 BMatP= 1.17D-01
 IDIUse=3 WtCom= 4.69D-01 WtEn= 5.31D-01
 Coeff-Com:  0.361D+00 0.639D+00
 Coeff-En:   0.115D+00 0.885D+00
 Coeff:      0.230D+00 0.770D+00
 Gap=     0.721 Goal=   None    Shift=    0.000
 RMSDP=1.13D-02 MaxDP=5.95D-02 DE=-5.58D-02 OVMax= 3.90D-02

 Cycle   3  Pass 1  IDiag  1:
 E= -75.9833182611529     Delta-E=       -0.026403385333 Rises=F Damp=F
 DIIS: error= 1.32D-02 at cycle   3 NSaved=   3.
 NSaved= 3 IEnMin= 3 EnMin= -75.9833182611529     IErMin= 3 ErrMin= 1.32D-02
 ErrMax= 1.32D-02  0.00D+00 EMaxC= 1.00D-01 BMatC= 2.00D-03 BMatP= 4.04D-02
 IDIUse=3 WtCom= 8.68D-01 WtEn= 1.32D-01
 Coeff-Com: -0.343D-01 0.143D+00 0.891D+00
 Coeff-En:   0.000D+00 0.000D+00 0.100D+01
 Coeff:     -0.298D-01 0.124D+00 0.905D+00
 Gap=     0.697 Goal=   None    Shift=    0.000
 RMSDP=2.18D-03 MaxDP=1.18D-02 DE=-2.64D-02 OVMax= 1.12D-02

 Cycle   4  Pass 1  IDiag  1:
 E= -75.9848373679757     Delta-E=       -0.001519106823 Rises=F Damp=F
 DIIS: error= 1.65D-03 at cycle   4 NSaved=   4.
 NSaved= 4 IEnMin= 4 EnMin= -75.9848373679757     IErMin= 4 ErrMin= 1.65D-03
 ErrMax= 1.65D-03  0.00D+00 EMaxC= 1.00D-01 BMatC= 2.30D-05 BMatP= 2.00D-03
 IDIUse=3 WtCom= 9.84D-01 WtEn= 1.65D-02
 Coeff-Com:  0.844D-02-0.773D-01-0.280D+00 0.135D+01
 Coeff-En:   0.000D+00 0.000D+00 0.000D+00 0.100D+01
 Coeff:      0.830D-02-0.760D-01-0.276D+00 0.134D+01
 Gap=     0.701 Goal=   None    Shift=    0.000
 RMSDP=3.33D-04 MaxDP=2.28D-03 DE=-1.52D-03 OVMax= 1.11D-03

 Cycle   5  Pass 1  IDiag  1:
 E= -75.9848597926842     Delta-E=       -0.000022424709 Rises=F Damp=F
 DIIS: error= 1.39D-04 at cycle   5 NSaved=   5.
 NSaved= 5 IEnMin= 5 EnMin= -75.9848597926842     IErMin= 5 ErrMin= 1.39D-04
 ErrMax= 1.39D-04  0.00D+00 EMaxC= 1.00D-01 BMatC= 1.29D-07 BMatP= 2.30D-05
 IDIUse=3 WtCom= 9.99D-01 WtEn= 1.39D-03
 Coeff-Com: -0.200D-02 0.230D-01 0.754D-01-0.484D+00 0.139D+01
 Coeff-En:   0.000D+00 0.000D+00 0.000D+00 0.000D+00 0.100D+01
 Coeff:     -0.200D-02 0.229D-01 0.753D-01-0.484D+00 0.139D+01
 Gap=     0.701 Goal=   None    Shift=    0.000
 RMSDP=6.81D-05 MaxDP=3.08D-04 DE=-2.24D-05 OVMax= 3.91D-04

 Cycle   6  Pass 1  IDiag  1:
 E= -75.9848601363113     Delta-E=       -0.000000343627 Rises=F Damp=F
 DIIS: error= 1.88D-05 at cycle   6 NSaved=   6.
 NSaved= 6 IEnMin= 6 EnMin= -75.9848601363113     IErMin= 6 ErrMin= 1.88D-05
 ErrMax= 1.88D-05  0.00D+00 EMaxC= 1.00D-01 BMatC= 2.60D-09 BMatP= 1.29D-07
 IDIUse=1 WtCom= 1.00D+00 WtEn= 0.00D+00
 Coeff-Com:  0.667D-03-0.827D-02-0.263D-01 0.185D+00-0.603D+00 0.145D+01
 Coeff:      0.667D-03-0.827D-02-0.263D-01 0.185D+00-0.603D+00 0.145D+01
 Gap=     0.701 Goal=   None    Shift=    0.000
 RMSDP=9.53D-06 MaxDP=4.34D-05 DE=-3.44D-07 OVMax= 5.78D-05

 Cycle   7  Pass 1  IDiag  1:
 E= -75.9848601438872     Delta-E=       -0.000000007576 Rises=F Damp=F
 DIIS: error= 3.39D-06 at cycle   7 NSaved=   7.
 NSaved= 7 IEnMin= 7 EnMin= -75.9848601438872     IErMin= 7 ErrMin= 3.39D-06
 ErrMax= 3.39D-06  0.00D+00 EMaxC= 1.00D-01 BMatC= 1.34D-10 BMatP= 2.60D-09
 IDIUse=1 WtCom= 1.00D+00 WtEn= 0.00D+00
 Coeff-Com: -0.586D-04 0.976D-03 0.282D-02-0.265D-01 0.106D+00-0.432D+00
 Coeff-Com:  0.135D+01
 Coeff:     -0.586D-04 0.976D-03 0.282D-02-0.265D-01 0.106D+00-0.432D+00
 Coeff:      0.135D+01
 Gap=     0.701 Goal=   None    Shift=    0.000
 RMSDP=1.75D-06 MaxDP=8.15D-06 DE=-7.58D-09 OVMax= 1.15D-05

 Cycle   8  Pass 1  IDiag  1:
 E= -75.9848601442058     Delta-E=       -0.000000000319 Rises=F Damp=F
 DIIS: error= 3.69D-07 at cycle   8 NSaved=   8.
 NSaved= 8 IEnMin= 8 EnMin= -75.9848601442058     IErMin= 8 ErrMin= 3.69D-07
 ErrMax= 3.69D-07  0.00D+00 EMaxC= 1.00D-01 BMatC= 1.68D-12 BMatP= 1.34D-10
 IDIUse=1 WtCom= 1.00D+00 WtEn= 0.00D+00
 Coeff-Com: -0.901D-05 0.327D-04 0.197D-03 0.568D-03-0.690D-02 0.571D-01
 Coeff-Com: -0.296D+00 0.125D+01
 Coeff:     -0.901D-05 0.327D-04 0.197D-03 0.568D-03-0.690D-02 0.571D-01
 Coeff:     -0.296D+00 0.125D+01
 Gap=     0.701 Goal=   None    Shift=    0.000
 RMSDP=2.07D-07 MaxDP=7.68D-07 DE=-3.19D-10 OVMax= 1.24D-06

 Cycle   9  Pass 1  IDiag  1:
 E= -75.9848601442097     Delta-E=       -0.000000000004 Rises=F Damp=F
 DIIS: error= 6.19D-08 at cycle   9 NSaved=   9.
 NSaved= 9 IEnMin= 9 EnMin= -75.9848601442097     IErMin= 9 ErrMin= 6.19D-08
 ErrMax= 6.19D-08  0.00D+00 EMaxC= 1.00D-01 BMatC= 2.89D-14 BMatP= 1.68D-12
 IDIUse=1 WtCom= 1.00D+00 WtEn= 0.00D+00
 Coeff-Com:  0.137D-05 0.177D-05-0.154D-04-0.349D-03 0.222D-02-0.142D-01
 Coeff-Com:  0.687D-01-0.354D+00 0.130D+01
 Coeff:      0.137D-05 0.177D-05-0.154D-04-0.349D-03 0.222D-02-0.142D-01
 Coeff:      0.687D-01-0.354D+00 0.130D+01
 Gap=     0.701 Goal=   None    Shift=    0.000
 RMSDP=3.56D-08 MaxDP=1.24D-07 DE=-3.98D-12 OVMax= 2.23D-07

 Cycle  10  Pass 1  IDiag  1:
 E= -75.9848601442099     Delta-E=        0.000000000000 Rises=F Damp=F
 DIIS: error= 4.52D-09 at cycle  10 NSaved=  10.
 NSaved=10 IEnMin=10 EnMin= -75.9848601442099     IErMin=10 ErrMin= 4.52D-09
 ErrMax= 4.52D-09  0.00D+00 EMaxC= 1.00D-01 BMatC= 1.77D-16 BMatP= 2.89D-14
 IDIUse=1 WtCom= 1.00D+00 WtEn= 0.00D+00
 Coeff-Com: -0.199D-06 0.375D-06 0.355D-05 0.253D-04-0.197D-03 0.136D-02
 Coeff-Com: -0.735D-02 0.429D-01-0.217D+00 0.118D+01
 Coeff:     -0.199D-06 0.375D-06 0.355D-05 0.253D-04-0.197D-03 0.136D-02
 Coeff:     -0.735D-02 0.429D-01-0.217D+00 0.118D+01
 Gap=     0.701 Goal=   None    Shift=    0.000
 RMSDP=3.46D-09 MaxDP=1.24D-08 DE=-1.28D-13 OVMax= 2.05D-08

 SCF Done:  E(RHF) =  -75.9848601442     A.U. after   10 cycles
            NFock= 10  Conv=0.35D-08     -V/T= 2.0004
 KE= 7.595459537729D+01 PE=-1.988045937574D+02 EE= 3.775960110948D+01
 Leave Link  502 at Tue Mar 17 12:44:02 2020, MaxMem=    33554432 cpu:         0.1
 (Enter /usr/local/gaussian09d01/g09/l601.exe)
 Copying SCF densities to generalized density rwf, IOpCl= 0 IROHF=0.

 **********************************************************************

            Population analysis using the SCF density.

 **********************************************************************

 Orbital symmetries:
       Occupied  (A1) (A1) (B2) (A1) (B1)
       Virtual   (A1) (B2) (B2) (A1) (B1) (A1) (B2) (A1)
 The electronic state is 1-A1.
 Alpha  occ. eigenvalues --  -20.55772  -1.34598  -0.71470  -0.54888  -0.49812
 Alpha virt. eigenvalues --    0.20285   0.29868   1.08779   1.14955   1.16665
 Alpha virt. eigenvalues --    1.20824   1.38292   1.67892
          Condensed to atoms (all electrons):
               1          2          3
     1  O    8.291383   0.259270   0.259270
     2  H    0.259270   0.363408  -0.027640
     3  H    0.259270  -0.027640   0.363408
 Mulliken charges:
               1
     1  O   -0.809924
     2  H    0.404962
     3  H    0.404962
 Sum of Mulliken charges =   0.00000
 Mulliken charges with hydrogens summed into heavy atoms:
               1
     1  O    0.000000
 Electronic spatial extent (au):  <R**2>=             19.1827
 Charge=              0.0000 electrons
 Dipole moment (field-independent basis, Debye):
    X=              0.0000    Y=              0.0000    Z=             -2.5359  Tot=              2.5359
 Quadrupole moment (field-independent basis, Debye-Ang):
   XX=             -7.2283   YY=             -3.9340   ZZ=             -6.2763
   XY=              0.0000   XZ=              0.0000   YZ=              0.0000
 Traceless Quadrupole moment (field-independent basis, Debye-Ang):
   XX=             -1.4155   YY=              1.8789   ZZ=             -0.4634
   XY=              0.0000   XZ=              0.0000   YZ=              0.0000
 Octapole moment (field-independent basis, Debye-Ang**2):
  XXX=              0.0000  YYY=              0.0000  ZZZ=             -1.4944  XYY=              0.0000
  XXY=              0.0000  XXZ=             -0.4229  XZZ=              0.0000  YZZ=              0.0000
  YYZ=             -1.3601  XYZ=              0.0000
 Hexadecapole moment (field-independent basis, Debye-Ang**3):
 XXXX=             -5.2047 YYYY=             -5.4768 ZZZZ=             -6.1410 XXXY=              0.0000
 XXXZ=              0.0000 YYYX=              0.0000 YYYZ=              0.0000 ZZZX=              0.0000
 ZZZY=              0.0000 XXYY=             -2.0690 XXZZ=             -1.9295 YYZZ=             -1.6788
 XXYZ=              0.0000 YYXZ=              0.0000 ZZXY=              0.0000
 N-N= 9.105537126379D+00 E-N=-1.988045937678D+02  KE= 7.595459537729D+01
 Symmetry A1   KE= 6.792895188692D+01
 Symmetry A2   KE= 0.000000000000D+00
 Symmetry B1   KE= 4.561061238258D+00
 Symmetry B2   KE= 3.464582252115D+00
 No NMR shielding tensors so no spin-rotation constants.
 Leave Link  601 at Tue Mar 17 12:44:02 2020, MaxMem=    33554432 cpu:         0.2
 (Enter /usr/local/gaussian09d01/g09/l9999.exe)
 1\1\GINC-KARURA\SP\RHF\6-31G\H2O1\RTAKE\17-Mar-2020\0\\#p HF/6-31G\\ch
 k calc\\0,1\O,0,0.049680185,-0.039736996,-3.149273389\H,0,-0.50690121,
 -0.601434916,-2.595583463\H,0,0.606261581,0.521960924,-2.595583463\\Ve
 rsion=ES64L-G09RevD.01\State=1-A1\HF=-75.9848601\RMSD=3.459e-09\Dipole
 =0.,0.,0.9976893\Quadrupole=0.1610623,0.1834743,-0.3445367,1.2245775,0
 .,0.\PG=C02V [C2(O1),SGV(H2)]\\@


 There ain't no surer way to find out whether you
 like people or hate them than to travel with them.
                                     -- Mark Twain
 Job cpu time:       0 days  0 hours  0 minutes  1.2 seconds.
 File lengths (MBytes):  RWF=      5 Int=      0 D2E=      0 Chk=      1 Scr=      1
 Normal termination of Gaussian 09 at Tue Mar 17 12:44:02 2020.
