 Entering Gaussian System, Link 0=g09
 Input=./h2o_h2h3_160.gjf
 Output=./h2o_h2h3_160.log
 Initial command:
 /usr/local/gaussian09d01/g09/l1.exe "/scr/Gau-12088.inp" -scrdir="/scr/"
 Entering Link 1 = /usr/local/gaussian09d01/g09/l1.exe PID=     12089.
  
 Copyright (c) 1988,1990,1992,1993,1995,1998,2003,2009,2013,
            Gaussian, Inc.  All Rights Reserved.
  
 This is part of the Gaussian(R) 09 program.  It is based on
 the Gaussian(R) 03 system (copyright 2003, Gaussian, Inc.),
 the Gaussian(R) 98 system (copyright 1998, Gaussian, Inc.),
 the Gaussian(R) 94 system (copyright 1995, Gaussian, Inc.),
 the Gaussian 92(TM) system (copyright 1992, Gaussian, Inc.),
 the Gaussian 90(TM) system (copyright 1990, Gaussian, Inc.),
 the Gaussian 88(TM) system (copyright 1988, Gaussian, Inc.),
 the Gaussian 86(TM) system (copyright 1986, Carnegie Mellon
 University), and the Gaussian 82(TM) system (copyright 1983,
 Carnegie Mellon University). Gaussian is a federally registered
 trademark of Gaussian, Inc.
  
 This software contains proprietary and confidential information,
 including trade secrets, belonging to Gaussian, Inc.
  
 This software is provided under written license and may be
 used, copied, transmitted, or stored only in accord with that
 written license.
  
 The following legend is applicable only to US Government
 contracts under FAR:
  
                    RESTRICTED RIGHTS LEGEND
  
 Use, reproduction and disclosure by the US Government is
 subject to restrictions as set forth in subparagraphs (a)
 and (c) of the Commercial Computer Software - Restricted
 Rights clause in FAR 52.227-19.
  
 Gaussian, Inc.
 340 Quinnipiac St., Bldg. 40, Wallingford CT 06492
  
  
 ---------------------------------------------------------------
 Warning -- This program may not be used in any manner that
 competes with the business of Gaussian, Inc. or will provide
 assistance to any competitor of Gaussian, Inc.  The licensee
 of this program is prohibited from giving any competitor of
 Gaussian, Inc. access to this program.  By using this program,
 the user acknowledges that Gaussian, Inc. is engaged in the
 business of creating and licensing software in the field of
 computational chemistry and represents and warrants to the
 licensee that it is not a competitor of Gaussian, Inc. and that
 it will not use this program in any manner prohibited above.
 ---------------------------------------------------------------
  

 Cite this work as:
 Gaussian 09, Revision D.01,
 M. J. Frisch, G. W. Trucks, H. B. Schlegel, G. E. Scuseria, 
 M. A. Robb, J. R. Cheeseman, G. Scalmani, V. Barone, B. Mennucci, 
 G. A. Petersson, H. Nakatsuji, M. Caricato, X. Li, H. P. Hratchian, 
 A. F. Izmaylov, J. Bloino, G. Zheng, J. L. Sonnenberg, M. Hada, 
 M. Ehara, K. Toyota, R. Fukuda, J. Hasegawa, M. Ishida, T. Nakajima, 
 Y. Honda, O. Kitao, H. Nakai, T. Vreven, J. A. Montgomery, Jr., 
 J. E. Peralta, F. Ogliaro, M. Bearpark, J. J. Heyd, E. Brothers, 
 K. N. Kudin, V. N. Staroverov, T. Keith, R. Kobayashi, J. Normand, 
 K. Raghavachari, A. Rendell, J. C. Burant, S. S. Iyengar, J. Tomasi, 
 M. Cossi, N. Rega, J. M. Millam, M. Klene, J. E. Knox, J. B. Cross, 
 V. Bakken, C. Adamo, J. Jaramillo, R. Gomperts, R. E. Stratmann, 
 O. Yazyev, A. J. Austin, R. Cammi, C. Pomelli, J. W. Ochterski, 
 R. L. Martin, K. Morokuma, V. G. Zakrzewski, G. A. Voth, 
 P. Salvador, J. J. Dannenberg, S. Dapprich, A. D. Daniels, 
 O. Farkas, J. B. Foresman, J. V. Ortiz, J. Cioslowski, 
 and D. J. Fox, Gaussian, Inc., Wallingford CT, 2013.
 
 ******************************************
 Gaussian 09:  ES64L-G09RevD.01 24-Apr-2013
                17-Mar-2020 
 ******************************************
 -----------
 #p HF/6-31G
 -----------
 1/38=1/1;
 2/12=2,17=6,18=5,40=1/2;
 3/5=1,6=6,11=9,16=1,25=1,30=1/1,2,3;
 4//1;
 5/5=2,38=5/2;
 6/7=2,8=2,9=2,10=2,28=1/1;
 99/5=1,9=1/99;
 Leave Link    1 at Tue Mar 17 12:44:07 2020, MaxMem=           0 cpu:         0.0
 (Enter /usr/local/gaussian09d01/g09/l101.exe)
 --------
 chk calc
 --------
 Symbolic Z-matrix:
 Charge =  0 Multiplicity = 1
 O                     0.04968  -0.03974  -3.14927 
 H                    -0.61946  -0.71503  -2.98165 
 H                     0.71882   0.63555  -2.98165 
 
 NAtoms=      3 NQM=        3 NQMF=       0 NMMI=      0 NMMIF=      0
                NMic=       0 NMicF=      0.
                    Isotopes and Nuclear Properties:
 (Nuclear quadrupole moments (NQMom) in fm**2, nuclear magnetic moments (NMagM)
  in nuclear magnetons)

  Atom         1           2           3
 IAtWgt=          16           1           1
 AtmWgt=  15.9949146   1.0078250   1.0078250
 NucSpn=           0           1           1
 AtZEff=   0.0000000   0.0000000   0.0000000
 NQMom=    0.0000000   0.0000000   0.0000000
 NMagM=    0.0000000   2.7928460   2.7928460
 AtZNuc=   8.0000000   1.0000000   1.0000000
 Leave Link  101 at Tue Mar 17 12:44:07 2020, MaxMem=    33554432 cpu:         0.1
 (Enter /usr/local/gaussian09d01/g09/l202.exe)
                          Input orientation:                          
 ---------------------------------------------------------------------
 Center     Atomic      Atomic             Coordinates (Angstroms)
 Number     Number       Type             X           Y           Z
 ---------------------------------------------------------------------
      1          8           0        0.049680   -0.039737   -3.149273
      2          1           0       -0.619458   -0.715026   -2.981646
      3          1           0        0.718818    0.635552   -2.981646
 ---------------------------------------------------------------------
                    Distance matrix (angstroms):
                    1          2          3
     1  O    0.000000
     2  H    0.965329   0.000000
     3  H    0.965329   1.901327   0.000000
 Stoichiometry    H2O
 Framework group  C2V[C2(O),SGV(H2)]
 Deg. of freedom     2
 Full point group                 C2V     NOp   4
 Largest Abelian subgroup         C2V     NOp   4
 Largest concise Abelian subgroup C2      NOp   2
                         Standard orientation:                         
 ---------------------------------------------------------------------
 Center     Atomic      Atomic             Coordinates (Angstroms)
 Number     Number       Type             X           Y           Z
 ---------------------------------------------------------------------
      1          8           0        0.000000    0.000000    0.033526
      2          1           0        0.000000    0.950663   -0.134102
      3          1           0        0.000000   -0.950663   -0.134102
 ---------------------------------------------------------------------
 Rotational constants (GHZ):  10047.4617112    277.4268548    269.9724732
 Leave Link  202 at Tue Mar 17 12:44:07 2020, MaxMem=    33554432 cpu:         0.0
 (Enter /usr/local/gaussian09d01/g09/l301.exe)
 Standard basis: 6-31G (6D, 7F)
 Ernie: Thresh=  0.10000D-02 Tol=  0.10000D-05 Strict=F.
 There are     7 symmetry adapted cartesian basis functions of A1  symmetry.
 There are     0 symmetry adapted cartesian basis functions of A2  symmetry.
 There are     2 symmetry adapted cartesian basis functions of B1  symmetry.
 There are     4 symmetry adapted cartesian basis functions of B2  symmetry.
 There are     7 symmetry adapted basis functions of A1  symmetry.
 There are     0 symmetry adapted basis functions of A2  symmetry.
 There are     2 symmetry adapted basis functions of B1  symmetry.
 There are     4 symmetry adapted basis functions of B2  symmetry.
    13 basis functions,    30 primitive gaussians,    13 cartesian basis functions
     5 alpha electrons        5 beta electrons
       nuclear repulsion energy         9.0492529565 Hartrees.
 IExCor=    0 DFT=F Ex=HF Corr=None ExCW=0 ScaHFX=  1.000000
 ScaDFX=  1.000000  1.000000  1.000000  1.000000 ScalE2=  1.000000  1.000000
 IRadAn=      0 IRanWt=     -1 IRanGd=            0 ICorTp=0 IEmpDi=  4
 NAtoms=    3 NActive=    3 NUniq=    2 SFac= 2.25D+00 NAtFMM=   60 NAOKFM=F Big=F
 Integral buffers will be    131072 words long.
 Raffenetti 1 integral format.
 Two-electron integral symmetry is turned on.
 Leave Link  301 at Tue Mar 17 12:44:07 2020, MaxMem=    33554432 cpu:         0.1
 (Enter /usr/local/gaussian09d01/g09/l302.exe)
 NPDir=0 NMtPBC=     1 NCelOv=     1 NCel=       1 NClECP=     1 NCelD=      1
         NCelK=      1 NCelE2=     1 NClLst=     1 CellRange=     0.0.
 One-electron integrals computed using PRISM.
 One-electron integral symmetry used in STVInt
 NBasis=    13 RedAO= T EigKep=  1.18D-01  NBF=     7     0     2     4
 NBsUse=    13 1.00D-06 EigRej= -1.00D+00 NBFU=     7     0     2     4
 Leave Link  302 at Tue Mar 17 12:44:07 2020, MaxMem=    33554432 cpu:         0.2
 (Enter /usr/local/gaussian09d01/g09/l303.exe)
 DipDrv:  MaxL=1.
 Leave Link  303 at Tue Mar 17 12:44:07 2020, MaxMem=    33554432 cpu:         0.1
 (Enter /usr/local/gaussian09d01/g09/l401.exe)
 ExpMin= 1.61D-01 ExpMax= 5.48D+03 ExpMxC= 8.25D+02 IAcc=1 IRadAn=         1 AccDes= 0.00D+00
 Harris functional with IExCor=  205 and IRadAn=       1 diagonalized for initial guess.
 HarFok:  IExCor=  205 AccDes= 0.00D+00 IRadAn=         1 IDoV= 1 UseB2=F ITyADJ=14
 ICtDFT=  3500011 ScaDFX=  1.000000  1.000000  1.000000  1.000000
 FoFCou: FMM=F IPFlag=           0 FMFlag=      100000 FMFlg1=           0
         NFxFlg=           0 DoJE=T BraDBF=F KetDBF=T FulRan=T
         wScrn=  0.000000 ICntrl=     500 IOpCl=  0 I1Cent=   200000004 NGrid=           0
         NMat0=    1 NMatS0=      1 NMatT0=    0 NMatD0=    1 NMtDS0=    0 NMtDT0=    0
 Petite list used in FoFCou.
 Harris En= -76.0640656955847    
 JPrj=0 DoOrth=F DoCkMO=F.
 Initial guess orbital symmetries:
       Occupied  (A1) (A1) (B2) (A1) (B1)
       Virtual   (A1) (B2) (A1) (B1) (A1) (B2) (A1) (B2)
 The electronic state of the initial guess is 1-A1.
 Leave Link  401 at Tue Mar 17 12:44:07 2020, MaxMem=    33554432 cpu:         0.2
 (Enter /usr/local/gaussian09d01/g09/l502.exe)
 Closed shell SCF:
 Using DIIS extrapolation, IDIIS=  1040.
 Integral symmetry usage will be decided dynamically.
 Keep R1 ints in memory in symmetry-blocked form, NReq=829659.
 IVT=       20197 IEndB=       20197 NGot=    33554432 MDV=    33532255
 LenX=    33532255 LenY=    33531373
 Requested convergence on RMS density matrix=1.00D-08 within 128 cycles.
 Requested convergence on MAX density matrix=1.00D-06.
 Requested convergence on             energy=1.00D-06.
 No special actions if energy rises.
 FoFCou: FMM=F IPFlag=           0 FMFlag=           0 FMFlg1=           0
         NFxFlg=           0 DoJE=F BraDBF=F KetDBF=F FulRan=T
         wScrn=  0.000000 ICntrl=     600 IOpCl=  0 I1Cent=           0 NGrid=           0
         NMat0=    1 NMatS0=     91 NMatT0=    0 NMatD0=    1 NMtDS0=    0 NMtDT0=    0
 Petite list used in FoFCou.

 Cycle   1  Pass 1  IDiag  1:
 E= -75.8584933465011    
 DIIS: error= 9.84D-02 at cycle   1 NSaved=   1.
 NSaved= 1 IEnMin= 1 EnMin= -75.8584933465011     IErMin= 1 ErrMin= 9.84D-02
 ErrMax= 9.84D-02  0.00D+00 EMaxC= 1.00D-01 BMatC= 1.31D-01 BMatP= 1.31D-01
 IDIUse=3 WtCom= 1.63D-02 WtEn= 9.84D-01
 Coeff-Com:  0.100D+01
 Coeff-En:   0.100D+01
 Coeff:      0.100D+01
 Gap=     0.535 Goal=   None    Shift=    0.000
 GapD=    0.535 DampG=2.000 DampE=0.500 DampFc=1.0000 IDamp=-1.
 RMSDP=2.33D-02 MaxDP=1.32D-01              OVMax= 1.22D-01

 Cycle   2  Pass 1  IDiag  1:
 E= -75.9192552440181     Delta-E=       -0.060761897517 Rises=F Damp=F
 DIIS: error= 5.34D-02 at cycle   2 NSaved=   2.
 NSaved= 2 IEnMin= 2 EnMin= -75.9192552440181     IErMin= 2 ErrMin= 5.34D-02
 ErrMax= 5.34D-02  0.00D+00 EMaxC= 1.00D-01 BMatC= 4.32D-02 BMatP= 1.31D-01
 IDIUse=3 WtCom= 4.66D-01 WtEn= 5.34D-01
 Coeff-Com:  0.356D+00 0.644D+00
 Coeff-En:   0.118D+00 0.882D+00
 Coeff:      0.229D+00 0.771D+00
 Gap=     0.682 Goal=   None    Shift=    0.000
 RMSDP=1.08D-02 MaxDP=5.96D-02 DE=-6.08D-02 OVMax= 4.59D-02

 Cycle   3  Pass 1  IDiag  1:
 E= -75.9476412132421     Delta-E=       -0.028385969224 Rises=F Damp=F
 DIIS: error= 1.30D-02 at cycle   3 NSaved=   3.
 NSaved= 3 IEnMin= 3 EnMin= -75.9476412132421     IErMin= 3 ErrMin= 1.30D-02
 ErrMax= 1.30D-02  0.00D+00 EMaxC= 1.00D-01 BMatC= 2.08D-03 BMatP= 4.32D-02
 IDIUse=3 WtCom= 8.70D-01 WtEn= 1.30D-01
 Coeff-Com: -0.279D-01 0.148D+00 0.880D+00
 Coeff-En:   0.000D+00 0.000D+00 0.100D+01
 Coeff:     -0.242D-01 0.128D+00 0.896D+00
 Gap=     0.656 Goal=   None    Shift=    0.000
 RMSDP=2.04D-03 MaxDP=1.12D-02 DE=-2.84D-02 OVMax= 1.16D-02

 Cycle   4  Pass 1  IDiag  1:
 E= -75.9491290538885     Delta-E=       -0.001487840646 Rises=F Damp=F
 DIIS: error= 1.14D-03 at cycle   4 NSaved=   4.
 NSaved= 4 IEnMin= 4 EnMin= -75.9491290538885     IErMin= 4 ErrMin= 1.14D-03
 ErrMax= 1.14D-03  0.00D+00 EMaxC= 1.00D-01 BMatC= 1.47D-05 BMatP= 2.08D-03
 IDIUse=3 WtCom= 9.89D-01 WtEn= 1.14D-02
 Coeff-Com:  0.719D-02-0.704D-01-0.271D+00 0.133D+01
 Coeff-En:   0.000D+00 0.000D+00 0.000D+00 0.100D+01
 Coeff:      0.711D-02-0.696D-01-0.268D+00 0.133D+01
 Gap=     0.659 Goal=   None    Shift=    0.000
 RMSDP=2.25D-04 MaxDP=1.34D-03 DE=-1.49D-03 OVMax= 7.15D-04

 Cycle   5  Pass 1  IDiag  1:
 E= -75.9491421440753     Delta-E=       -0.000013090187 Rises=F Damp=F
 DIIS: error= 6.91D-05 at cycle   5 NSaved=   5.
 NSaved= 5 IEnMin= 5 EnMin= -75.9491421440753     IErMin= 5 ErrMin= 6.91D-05
 ErrMax= 6.91D-05  0.00D+00 EMaxC= 1.00D-01 BMatC= 6.02D-08 BMatP= 1.47D-05
 IDIUse=1 WtCom= 1.00D+00 WtEn= 0.00D+00
 Coeff-Com: -0.191D-02 0.225D-01 0.795D-01-0.511D+00 0.141D+01
 Coeff:     -0.191D-02 0.225D-01 0.795D-01-0.511D+00 0.141D+01
 Gap=     0.659 Goal=   None    Shift=    0.000
 RMSDP=5.57D-05 MaxDP=2.12D-04 DE=-1.31D-05 OVMax= 3.25D-04

 Cycle   6  Pass 1  IDiag  1:
 E= -75.9491423424961     Delta-E=       -0.000000198421 Rises=F Damp=F
 DIIS: error= 1.78D-05 at cycle   6 NSaved=   6.
 NSaved= 6 IEnMin= 6 EnMin= -75.9491423424961     IErMin= 6 ErrMin= 1.78D-05
 ErrMax= 1.78D-05  0.00D+00 EMaxC= 1.00D-01 BMatC= 1.89D-09 BMatP= 6.02D-08
 IDIUse=1 WtCom= 1.00D+00 WtEn= 0.00D+00
 Coeff-Com:  0.484D-03-0.652D-02-0.216D-01 0.165D+00-0.581D+00 0.144D+01
 Coeff:      0.484D-03-0.652D-02-0.216D-01 0.165D+00-0.581D+00 0.144D+01
 Gap=     0.659 Goal=   None    Shift=    0.000
 RMSDP=1.29D-05 MaxDP=5.61D-05 DE=-1.98D-07 OVMax= 8.62D-05

 Cycle   7  Pass 1  IDiag  1:
 E= -75.9491423510348     Delta-E=       -0.000000008539 Rises=F Damp=F
 DIIS: error= 4.07D-06 at cycle   7 NSaved=   7.
 NSaved= 7 IEnMin= 7 EnMin= -75.9491423510348     IErMin= 7 ErrMin= 4.07D-06
 ErrMax= 4.07D-06  0.00D+00 EMaxC= 1.00D-01 BMatC= 1.32D-10 BMatP= 1.89D-09
 IDIUse=1 WtCom= 1.00D+00 WtEn= 0.00D+00
 Coeff-Com:  0.255D-05 0.447D-03 0.807D-03-0.202D-01 0.118D+00-0.563D+00
 Coeff-Com:  0.146D+01
 Coeff:      0.255D-05 0.447D-03 0.807D-03-0.202D-01 0.118D+00-0.563D+00
 Coeff:      0.146D+01
 Gap=     0.659 Goal=   None    Shift=    0.000
 RMSDP=3.15D-06 MaxDP=1.15D-05 DE=-8.54D-09 OVMax= 2.20D-05

 Cycle   8  Pass 1  IDiag  1:
 E= -75.9491423515283     Delta-E=       -0.000000000493 Rises=F Damp=F
 DIIS: error= 2.58D-07 at cycle   8 NSaved=   8.
 NSaved= 8 IEnMin= 8 EnMin= -75.9491423515283     IErMin= 8 ErrMin= 2.58D-07
 ErrMax= 2.58D-07  0.00D+00 EMaxC= 1.00D-01 BMatC= 1.14D-12 BMatP= 1.32D-10
 IDIUse=1 WtCom= 1.00D+00 WtEn= 0.00D+00
 Coeff-Com: -0.130D-04 0.268D-04 0.292D-03 0.180D-02-0.197D-01 0.120D+00
 Coeff-Com: -0.378D+00 0.128D+01
 Coeff:     -0.130D-04 0.268D-04 0.292D-03 0.180D-02-0.197D-01 0.120D+00
 Coeff:     -0.378D+00 0.128D+01
 Gap=     0.659 Goal=   None    Shift=    0.000
 RMSDP=1.93D-07 MaxDP=7.21D-07 DE=-4.93D-10 OVMax= 1.15D-06

 Cycle   9  Pass 1  IDiag  1:
 E= -75.9491423515309     Delta-E=       -0.000000000003 Rises=F Damp=F
 DIIS: error= 2.07D-08 at cycle   9 NSaved=   9.
 NSaved= 9 IEnMin= 9 EnMin= -75.9491423515309     IErMin= 9 ErrMin= 2.07D-08
 ErrMax= 2.07D-08  0.00D+00 EMaxC= 1.00D-01 BMatC= 7.72D-15 BMatP= 1.14D-12
 IDIUse=1 WtCom= 1.00D+00 WtEn= 0.00D+00
 Coeff-Com:  0.138D-05 0.389D-05-0.172D-04-0.479D-03 0.366D-02-0.199D-01
 Coeff-Com:  0.604D-01-0.230D+00 0.119D+01
 Coeff:      0.138D-05 0.389D-05-0.172D-04-0.479D-03 0.366D-02-0.199D-01
 Coeff:      0.604D-01-0.230D+00 0.119D+01
 Gap=     0.659 Goal=   None    Shift=    0.000
 RMSDP=1.31D-08 MaxDP=4.94D-08 DE=-2.59D-12 OVMax= 5.82D-08

 Cycle  10  Pass 1  IDiag  1:
 E= -75.9491423515309     Delta-E=        0.000000000000 Rises=F Damp=F
 DIIS: error= 2.24D-09 at cycle  10 NSaved=  10.
 NSaved=10 IEnMin=10 EnMin= -75.9491423515309     IErMin=10 ErrMin= 2.24D-09
 ErrMax= 2.24D-09  0.00D+00 EMaxC= 1.00D-01 BMatC= 8.74D-17 BMatP= 7.72D-15
 IDIUse=1 WtCom= 1.00D+00 WtEn= 0.00D+00
 Coeff-Com: -0.144D-06-0.289D-06 0.205D-05 0.438D-04-0.335D-03 0.176D-02
 Coeff-Com: -0.544D-02 0.238D-01-0.195D+00 0.118D+01
 Coeff:     -0.144D-06-0.289D-06 0.205D-05 0.438D-04-0.335D-03 0.176D-02
 Coeff:     -0.544D-02 0.238D-01-0.195D+00 0.118D+01
 Gap=     0.659 Goal=   None    Shift=    0.000
 RMSDP=1.59D-09 MaxDP=7.22D-09 DE=-1.42D-14 OVMax= 6.61D-09

 SCF Done:  E(RHF) =  -75.9491423515     A.U. after   10 cycles
            NFock= 10  Conv=0.16D-08     -V/T= 2.0012
 KE= 7.585913308688D+01 PE=-1.988403904407D+02 EE= 3.798286204579D+01
 Leave Link  502 at Tue Mar 17 12:44:07 2020, MaxMem=    33554432 cpu:         0.1
 (Enter /usr/local/gaussian09d01/g09/l601.exe)
 Copying SCF densities to generalized density rwf, IOpCl= 0 IROHF=0.

 **********************************************************************

            Population analysis using the SCF density.

 **********************************************************************

 Orbital symmetries:
       Occupied  (A1) (A1) (B2) (A1) (B1)
       Virtual   (A1) (B2) (A1) (B1) (A1) (B2) (A1) (B2)
 The electronic state is 1-A1.
 Alpha  occ. eigenvalues --  -20.51247  -1.29563  -0.75790  -0.47268  -0.46910
 Alpha virt. eigenvalues --    0.18983   0.30442   0.90991   1.18952   1.19473
 Alpha virt. eigenvalues --    1.34110   1.63752   1.68765
          Condensed to atoms (all electrons):
               1          2          3
     1  O    8.472612   0.267324   0.267324
     2  H    0.267324   0.243260  -0.014213
     3  H    0.267324  -0.014213   0.243260
 Mulliken charges:
               1
     1  O   -1.007259
     2  H    0.503630
     3  H    0.503630
 Sum of Mulliken charges =   0.00000
 Mulliken charges with hydrogens summed into heavy atoms:
               1
     1  O    0.000000
 Electronic spatial extent (au):  <R**2>=             18.7565
 Charge=              0.0000 electrons
 Dipole moment (field-independent basis, Debye):
    X=              0.0000    Y=              0.0000    Z=             -1.0294  Tot=              1.0294
 Quadrupole moment (field-independent basis, Debye-Ang):
   XX=             -7.3027   YY=             -1.8214   ZZ=             -7.2062
   XY=              0.0000   XZ=              0.0000   YZ=              0.0000
 Traceless Quadrupole moment (field-independent basis, Debye-Ang):
   XX=             -1.8592   YY=              3.6220   ZZ=             -1.7628
   XY=              0.0000   XZ=              0.0000   YZ=              0.0000
 Octapole moment (field-independent basis, Debye-Ang**2):
  XXX=              0.0000  YYY=              0.0000  ZZZ=             -0.4991  XYY=              0.0000
  XXY=              0.0000  XXZ=             -0.1646  XZZ=              0.0000  YZZ=              0.0000
  YYZ=             -0.7027  XYZ=              0.0000
 Hexadecapole moment (field-independent basis, Debye-Ang**3):
 XXXX=             -5.3079 YYYY=             -2.6698 ZZZZ=             -5.4065 XXXY=              0.0000
 XXXZ=              0.0000 YYYX=              0.0000 YYYZ=              0.0000 ZZZX=              0.0000
 ZZZY=              0.0000 XXYY=             -2.1101 XXZZ=             -1.7861 YYZZ=             -2.0357
 XXYZ=              0.0000 YYXZ=              0.0000 ZZXY=              0.0000
 N-N= 9.049252956467D+00 E-N=-1.988403904494D+02  KE= 7.585913308688D+01
 Symmetry A1   KE= 6.803308949822D+01
 Symmetry A2   KE= 0.000000000000D+00
 Symmetry B1   KE= 4.451131301629D+00
 Symmetry B2   KE= 3.374912287039D+00
 No NMR shielding tensors so no spin-rotation constants.
 Leave Link  601 at Tue Mar 17 12:44:07 2020, MaxMem=    33554432 cpu:         0.1
 (Enter /usr/local/gaussian09d01/g09/l9999.exe)
 1\1\GINC-KARURA\SP\RHF\6-31G\H2O1\RTAKE\17-Mar-2020\0\\#p HF/6-31G\\ch
 k calc\\0,1\O,0,0.049680185,-0.039736996,-3.149273389\H,0,-0.619457709
 ,-0.71502612,-2.98164578\H,0,0.718818079,0.635552128,-2.98164578\\Vers
 ion=ES64L-G09RevD.01\State=1-A1\HF=-75.9491424\RMSD=1.592e-09\Dipole=0
 .,0.,0.404984\Quadrupole=0.6366553,0.6739455,-1.3106007,2.0375175,0.,0
 .\PG=C02V [C2(O1),SGV(H2)]\\@


 NOTHING WILL BE ATTEMPTED IF ALL POSSIBLE OBJECTIONS
 MUST FIRST BE OVERCOME.

                               -- THE GOLDEN PRINCIPLE,
                    PAUL DICKSON'S "THE OFFICIAL RULES"
 Job cpu time:       0 days  0 hours  0 minutes  0.9 seconds.
 File lengths (MBytes):  RWF=      5 Int=      0 D2E=      0 Chk=      1 Scr=      1
 Normal termination of Gaussian 09 at Tue Mar 17 12:44:07 2020.
