 Entering Gaussian System, Link 0=g09
 Input=lup_chk_0.gjf
 Output=lup_chk_0.log
 Initial command:
 /usr/local/gaussian09d01/g09/l1.exe "/scr/Gau-14734.inp" -scrdir="/scr/"
 Entering Link 1 = /usr/local/gaussian09d01/g09/l1.exe PID=     14735.
  
 Copyright (c) 1988,1990,1992,1993,1995,1998,2003,2009,2013,
            Gaussian, Inc.  All Rights Reserved.
  
 This is part of the Gaussian(R) 09 program.  It is based on
 the Gaussian(R) 03 system (copyright 2003, Gaussian, Inc.),
 the Gaussian(R) 98 system (copyright 1998, Gaussian, Inc.),
 the Gaussian(R) 94 system (copyright 1995, Gaussian, Inc.),
 the Gaussian 92(TM) system (copyright 1992, Gaussian, Inc.),
 the Gaussian 90(TM) system (copyright 1990, Gaussian, Inc.),
 the Gaussian 88(TM) system (copyright 1988, Gaussian, Inc.),
 the Gaussian 86(TM) system (copyright 1986, Carnegie Mellon
 University), and the Gaussian 82(TM) system (copyright 1983,
 Carnegie Mellon University). Gaussian is a federally registered
 trademark of Gaussian, Inc.
  
 This software contains proprietary and confidential information,
 including trade secrets, belonging to Gaussian, Inc.
  
 This software is provided under written license and may be
 used, copied, transmitted, or stored only in accord with that
 written license.
  
 The following legend is applicable only to US Government
 contracts under FAR:
  
                    RESTRICTED RIGHTS LEGEND
  
 Use, reproduction and disclosure by the US Government is
 subject to restrictions as set forth in subparagraphs (a)
 and (c) of the Commercial Computer Software - Restricted
 Rights clause in FAR 52.227-19.
  
 Gaussian, Inc.
 340 Quinnipiac St., Bldg. 40, Wallingford CT 06492
  
  
 ---------------------------------------------------------------
 Warning -- This program may not be used in any manner that
 competes with the business of Gaussian, Inc. or will provide
 assistance to any competitor of Gaussian, Inc.  The licensee
 of this program is prohibited from giving any competitor of
 Gaussian, Inc. access to this program.  By using this program,
 the user acknowledges that Gaussian, Inc. is engaged in the
 business of creating and licensing software in the field of
 computational chemistry and represents and warrants to the
 licensee that it is not a competitor of Gaussian, Inc. and that
 it will not use this program in any manner prohibited above.
 ---------------------------------------------------------------
  

 Cite this work as:
 Gaussian 09, Revision D.01,
 M. J. Frisch, G. W. Trucks, H. B. Schlegel, G. E. Scuseria, 
 M. A. Robb, J. R. Cheeseman, G. Scalmani, V. Barone, B. Mennucci, 
 G. A. Petersson, H. Nakatsuji, M. Caricato, X. Li, H. P. Hratchian, 
 A. F. Izmaylov, J. Bloino, G. Zheng, J. L. Sonnenberg, M. Hada, 
 M. Ehara, K. Toyota, R. Fukuda, J. Hasegawa, M. Ishida, T. Nakajima, 
 Y. Honda, O. Kitao, H. Nakai, T. Vreven, J. A. Montgomery, Jr., 
 J. E. Peralta, F. Ogliaro, M. Bearpark, J. J. Heyd, E. Brothers, 
 K. N. Kudin, V. N. Staroverov, T. Keith, R. Kobayashi, J. Normand, 
 K. Raghavachari, A. Rendell, J. C. Burant, S. S. Iyengar, J. Tomasi, 
 M. Cossi, N. Rega, J. M. Millam, M. Klene, J. E. Knox, J. B. Cross, 
 V. Bakken, C. Adamo, J. Jaramillo, R. Gomperts, R. E. Stratmann, 
 O. Yazyev, A. J. Austin, R. Cammi, C. Pomelli, J. W. Ochterski, 
 R. L. Martin, K. Morokuma, V. G. Zakrzewski, G. A. Voth, 
 P. Salvador, J. J. Dannenberg, S. Dapprich, A. D. Daniels, 
 O. Farkas, J. B. Foresman, J. V. Ortiz, J. Cioslowski, 
 and D. J. Fox, Gaussian, Inc., Wallingford CT, 2013.
 
 ******************************************
 Gaussian 09:  ES64L-G09RevD.01 24-Apr-2013
                11-Mar-2020 
 ******************************************
 --------------
 #p M062X/6-31G
 --------------
 1/38=1/1;
 2/12=2,17=6,18=5,40=1/2;
 3/5=1,6=6,11=2,16=1,25=1,30=1,74=-55/1,2,3;
 4//1;
 5/5=2,38=5/2;
 6/7=2,8=2,9=2,10=2,28=1/1;
 99/5=1,9=1/99;
 Leave Link    1 at Wed Mar 11 15:21:39 2020, MaxMem=           0 cpu:         0.0
 (Enter /usr/local/gaussian09d01/g09/l101.exe)
 --------
 chk calc
 --------
 Symbolic Z-matrix:
 Charge =  1 Multiplicity = 1
 C                     3.82448  -1.1422    1.17225 
 H                     4.79911  -1.62961   1.17381 
 H                     3.05361  -1.91631   1.1608 
 H                    -2.54042  -2.84498  -1.0143 
 H                     3.75961  -0.53292   2.07825 
 H                     3.76532  -0.52154   0.27395 
 C                    -2.40154  -0.7055    0.49256 
 C                    -1.33366   0.19321   1.14127 
 C                     0.02197  -0.47034   0.95019 
 N                    -1.3033    1.52915   0.51595 
 O                     0.15593  -1.61146   0.51692 
 O                     1.02492   0.35339   1.29866 
 C                    -2.12189  -0.91834  -0.96711 
 H                    -3.3923   -0.2474    0.5965 
 H                    -2.41918  -1.6699    1.00444 
 H                    -1.5263    0.23947   2.22139 
 H                    -1.5039    0.96075  -1.1704 
 H                    -0.41056   1.99753   0.66615 
 H                     1.9244   -0.03993   1.23082 
 N                    -1.70046   0.06924  -1.69492 
 O                    -2.33685  -2.07165  -1.57518 
 H                    -2.0719    2.12856   0.80783 
 H                    -1.51441  -0.05451  -2.68524 
 
 NAtoms=     23 NQM=       23 NQMF=       0 NMMI=      0 NMMIF=      0
                NMic=       0 NMicF=      0.
                    Isotopes and Nuclear Properties:
 (Nuclear quadrupole moments (NQMom) in fm**2, nuclear magnetic moments (NMagM)
  in nuclear magnetons)

  Atom         1           2           3           4           5           6           7           8           9          10
 IAtWgt=          12           1           1           1           1           1          12          12          12          14
 AtmWgt=  12.0000000   1.0078250   1.0078250   1.0078250   1.0078250   1.0078250  12.0000000  12.0000000  12.0000000  14.0030740
 NucSpn=           0           1           1           1           1           1           0           0           0           2
 AtZEff=   0.0000000   0.0000000   0.0000000   0.0000000   0.0000000   0.0000000   0.0000000   0.0000000   0.0000000   0.0000000
 NQMom=    0.0000000   0.0000000   0.0000000   0.0000000   0.0000000   0.0000000   0.0000000   0.0000000   0.0000000   2.0440000
 NMagM=    0.0000000   2.7928460   2.7928460   2.7928460   2.7928460   2.7928460   0.0000000   0.0000000   0.0000000   0.4037610
 AtZNuc=   6.0000000   1.0000000   1.0000000   1.0000000   1.0000000   1.0000000   6.0000000   6.0000000   6.0000000   7.0000000

  Atom        11          12          13          14          15          16          17          18          19          20
 IAtWgt=          16          16          12           1           1           1           1           1           1          14
 AtmWgt=  15.9949146  15.9949146  12.0000000   1.0078250   1.0078250   1.0078250   1.0078250   1.0078250   1.0078250  14.0030740
 NucSpn=           0           0           0           1           1           1           1           1           1           2
 AtZEff=   0.0000000   0.0000000   0.0000000   0.0000000   0.0000000   0.0000000   0.0000000   0.0000000   0.0000000   0.0000000
 NQMom=    0.0000000   0.0000000   0.0000000   0.0000000   0.0000000   0.0000000   0.0000000   0.0000000   0.0000000   2.0440000
 NMagM=    0.0000000   0.0000000   0.0000000   2.7928460   2.7928460   2.7928460   2.7928460   2.7928460   2.7928460   0.4037610
 AtZNuc=   8.0000000   8.0000000   6.0000000   1.0000000   1.0000000   1.0000000   1.0000000   1.0000000   1.0000000   7.0000000

  Atom        21          22          23
 IAtWgt=          16           1           1
 AtmWgt=  15.9949146   1.0078250   1.0078250
 NucSpn=           0           1           1
 AtZEff=   0.0000000   0.0000000   0.0000000
 NQMom=    0.0000000   0.0000000   0.0000000
 NMagM=    0.0000000   2.7928460   2.7928460
 AtZNuc=   8.0000000   1.0000000   1.0000000
 Leave Link  101 at Wed Mar 11 15:21:39 2020, MaxMem=    33554432 cpu:         0.1
 (Enter /usr/local/gaussian09d01/g09/l202.exe)
                          Input orientation:                          
 ---------------------------------------------------------------------
 Center     Atomic      Atomic             Coordinates (Angstroms)
 Number     Number       Type             X           Y           Z
 ---------------------------------------------------------------------
      1          6           0        3.824483   -1.142195    1.172254
      2          1           0        4.799113   -1.629614    1.173809
      3          1           0        3.053614   -1.916313    1.160805
      4          1           0       -2.540416   -2.844982   -1.014303
      5          1           0        3.759606   -0.532918    2.078246
      6          1           0        3.765324   -0.521541    0.273951
      7          6           0       -2.401542   -0.705499    0.492563
      8          6           0       -1.333656    0.193207    1.141271
      9          6           0        0.021967   -0.470338    0.950187
     10          7           0       -1.303305    1.529149    0.515945
     11          8           0        0.155929   -1.611463    0.516920
     12          8           0        1.024922    0.353393    1.298656
     13          6           0       -2.121889   -0.918337   -0.967113
     14          1           0       -3.392299   -0.247402    0.596497
     15          1           0       -2.419177   -1.669900    1.004436
     16          1           0       -1.526304    0.239474    2.221388
     17          1           0       -1.503902    0.960751   -1.170400
     18          1           0       -0.410560    1.997532    0.666151
     19          1           0        1.924402   -0.039926    1.230819
     20          7           0       -1.700457    0.069239   -1.694920
     21          8           0       -2.336855   -2.071648   -1.575178
     22          1           0       -2.071901    2.128557    0.807834
     23          1           0       -1.514409   -0.054511   -2.685236
 ---------------------------------------------------------------------
                    Distance matrix (angstroms):
                    1          2          3          4          5
     1  C    0.000000
     2  H    1.089717   0.000000
     3  H    1.092532   1.768935   0.000000
     4  H    6.942078   7.754589   6.073442   0.000000
     5  H    1.093732   1.761058   1.803858   7.389167   0.000000
     6  H    1.093462   1.762467   1.799563   6.842538   1.804340
     7  C    6.278222   7.291606   5.627730   2.620556   6.364270
     8  C    5.328288   6.398015   4.868120   3.915783   5.229388
     9  C    3.867794   4.920879   3.365425   4.007987   3.904662
    10  N    5.819023   6.902903   5.591940   4.796365   5.685594
    11  O    3.756056   4.689455   2.983974   3.337138   4.072774
    12  O    3.176523   4.265257   3.047319   5.318930   2.978557
    13  C    6.323476   7.279405   5.684173   1.972143   6.634362
    14  H    7.294799   8.327247   6.682328   3.172979   7.309368
    15  H    6.268167   7.220389   5.480567   2.338979   6.373630
    16  H    5.624999   6.678459   5.171838   4.583883   5.343962
    17  H    6.188869   7.206477   5.872220   3.947446   6.363118
    18  H    5.296189   6.368250   5.250083   5.550689   5.078138
    19  H    2.197438   3.285472   2.191084   5.730926   2.080661
    20  N    6.341389   7.304801   5.890567   3.108288   6.664208
    21  O    6.809871   7.659919   6.047056   0.976762   7.272004
    22  H    6.752626   7.840192   6.538842   5.317497   6.534820
    23  H    6.675855   7.565298   6.255011   3.410489   7.122841
                    6          7          8          9         10
     6  H    0.000000
     7  C    6.173481   0.000000
     8  C    5.221370   1.539115   0.000000
     9  C    3.804292   2.477522   1.521354   0.000000
    10  N    5.473106   2.490045   1.475362   2.437797   0.000000
    11  O    3.778186   2.713305   2.421882   1.227938   3.463063
    12  O    3.053740   3.675826   2.369245   1.343831   2.723175
    13  C    6.029674   1.501385   2.510403   2.910818   2.976530
    14  H    7.170129   1.096474   2.174610   3.439769   2.743450
    15  H    6.332486   1.091969   2.160613   2.720492   3.423114
    16  H    5.689726   2.155888   1.098138   2.125307   2.149773
    17  H    5.661103   2.519443   2.441706   2.978788   1.790831
    18  H    4.892602   3.361625   2.081690   2.521535   1.019283
    19  H    2.129916   4.438671   3.267616   1.970601   3.659389
    20  N    5.839541   2.424215   2.862497   3.202261   2.678990
    21  O    6.561912   2.479133   3.676285   3.808636   4.290310
    22  H    6.432825   2.870528   2.098038   3.340478   1.017462
    23  H    6.070459   3.362914   3.838774   3.968584   3.577723
                   11         12         13         14         15
    11  O    0.000000
    12  O    2.286245   0.000000
    13  C    2.805572   4.080861   0.000000
    14  H    3.802225   4.512852   2.123434   0.000000
    15  H    2.621499   4.005259   2.130782   1.771124   0.000000
    16  H    3.026729   2.715358   3.444094   2.521757   2.433907
    17  H    3.495479   3.586095   1.988519   2.854401   3.533832
    18  H    3.656231   2.272415   3.754796   3.733008   4.195121
    19  H    2.471210   0.984055   4.687748   5.358426   4.644862
    20  N    3.341132   4.058317   1.297157   2.865865   3.290545
    21  O    3.286734   5.043936   1.321393   3.026220   2.612009
    22  H    4.362981   3.603113   3.526542   2.726407   3.819362
    23  H    3.932929   4.741938   2.016724   3.785954   4.128168
                   16         17         18         19         20
    16  H    0.000000
    17  H    3.467704   0.000000
    18  H    2.598926   2.375549   0.000000
    19  H    3.600926   4.303542   3.149942   0.000000
    20  N    3.923872   1.052876   3.310106   4.659557   0.000000
    21  O    4.517986   3.170662   5.029155   5.491796   2.236680
    22  H    2.421661   2.366391   1.672511   4.566362   3.262290
    23  H    4.915437   1.823621   4.081808   5.211632   1.015211
                   21         22         23
    21  O    0.000000
    22  H    4.836390   0.000000
    23  H    2.444890   4.156696   0.000000
 Stoichiometry    C5H13N2O3(1+)
 Framework group  C1[X(C5H13N2O3)]
 Deg. of freedom    63
 Full point group                 C1      NOp   1
 Largest Abelian subgroup         C1      NOp   1
 Largest concise Abelian subgroup C1      NOp   1
                         Standard orientation:                         
 ---------------------------------------------------------------------
 Center     Atomic      Atomic             Coordinates (Angstroms)
 Number     Number       Type             X           Y           Z
 ---------------------------------------------------------------------
      1          6           0       -4.368873   -0.943337    0.320899
      2          1           0       -5.273045   -1.546554    0.398918
      3          1           0       -3.654597   -1.475750   -0.311536
      4          1           0        2.342519   -2.245481   -0.884955
      5          1           0       -4.650473    0.016287   -0.121902
      6          1           0       -3.970422   -0.810593    1.330490
      7          6           0        1.650482    0.280349   -0.977572
      8          6           0        0.419919    1.160521   -0.694927
      9          6           0       -0.764246    0.244484   -0.424469
     10          7           0        0.634815    2.022792    0.482783
     11          8           0       -0.728277   -0.969896   -0.602852
     12          8           0       -1.821016    0.932733    0.039676
     13          6           0        1.945319   -0.632235    0.177598
     14          1           0        2.529385    0.910023   -1.160040
     15          1           0        1.468433   -0.314909   -1.874746
     16          1           0        0.188077    1.736771   -1.600517
     17          1           0        1.458547    0.786628    1.483004
     18          1           0       -0.246156    2.331853    0.891818
     19          1           0       -2.628928    0.392914    0.195366
     20          7           0        1.835942   -0.192148    1.392906
     21          8           0        2.370405   -1.873117    0.017613
     22          1           0        1.237398    2.820564    0.293885
     23          1           0        2.039464   -0.792712    2.185721
 ---------------------------------------------------------------------
 Rotational constants (GHZ):      1.8024477      0.7175390      0.6061729
 Leave Link  202 at Wed Mar 11 15:21:39 2020, MaxMem=    33554432 cpu:         0.0
 (Enter /usr/local/gaussian09d01/g09/l301.exe)
 Standard basis: 6-31G (6D, 7F)
 Ernie: Thresh=  0.10000D-02 Tol=  0.10000D-05 Strict=F.
 There are   116 symmetry adapted cartesian basis functions of A   symmetry.
 There are   116 symmetry adapted basis functions of A   symmetry.
   116 basis functions,   272 primitive gaussians,   116 cartesian basis functions
    40 alpha electrons       40 beta electrons
       nuclear repulsion energy       586.5853507083 Hartrees.
 IExCor= 4336 DFT=T Ex+Corr=M062X ExCW=0 ScaHFX=  0.540000
 ScaDFX=  1.000000  1.000000  1.000000  1.000000 ScalE2=  1.000000  1.000000
 IRadAn=      0 IRanWt=     -1 IRanGd=            0 ICorTp=0 IEmpDi=  4
 NAtoms=   23 NActive=   23 NUniq=   23 SFac= 1.00D+00 NAtFMM=   60 NAOKFM=F Big=F
 Integral buffers will be    131072 words long.
 Raffenetti 2 integral format.
 Two-electron integral symmetry is turned on.
 Leave Link  301 at Wed Mar 11 15:21:39 2020, MaxMem=    33554432 cpu:         0.0
 (Enter /usr/local/gaussian09d01/g09/l302.exe)
 NPDir=0 NMtPBC=     1 NCelOv=     1 NCel=       1 NClECP=     1 NCelD=      1
         NCelK=      1 NCelE2=     1 NClLst=     1 CellRange=     0.0.
 One-electron integrals computed using PRISM.
 NBasis=   116 RedAO= T EigKep=  3.51D-03  NBF=   116
 NBsUse=   116 1.00D-06 EigRej= -1.00D+00 NBFU=   116
 Precomputing XC quadrature grid using
 IXCGrd= 4 IRadAn=           0 IRanWt=          -1 IRanGd=           0 AccXCQ= 0.00D+00.
 Generated NRdTot=       0 NPtTot=           0 NUsed=           0 NTot=          32
 NSgBfM=   115   115   115   115   115 MxSgAt=    23 MxSgA2=    23.
 Leave Link  302 at Wed Mar 11 15:21:39 2020, MaxMem=    33554432 cpu:         0.3
 (Enter /usr/local/gaussian09d01/g09/l303.exe)
 DipDrv:  MaxL=1.
 Leave Link  303 at Wed Mar 11 15:21:39 2020, MaxMem=    33554432 cpu:         0.0
 (Enter /usr/local/gaussian09d01/g09/l401.exe)
 ExpMin= 1.61D-01 ExpMax= 5.48D+03 ExpMxC= 8.25D+02 IAcc=1 IRadAn=         1 AccDes= 0.00D+00
 Harris functional with IExCor= 1009 and IRadAn=       1 diagonalized for initial guess.
 HarFok:  IExCor= 1009 AccDes= 0.00D+00 IRadAn=         1 IDoV= 1 UseB2=F ITyADJ=14
 ICtDFT=  3500011 ScaDFX=  1.000000  1.000000  1.000000  1.000000
 FoFCou: FMM=F IPFlag=           0 FMFlag=      100000 FMFlg1=           0
         NFxFlg=           0 DoJE=T BraDBF=F KetDBF=T FulRan=T
         wScrn=  0.000000 ICntrl=     500 IOpCl=  0 I1Cent=   200000004 NGrid=           0
         NMat0=    1 NMatS0=      1 NMatT0=    0 NMatD0=    1 NMtDS0=    0 NMtDT0=    0
 Petite list used in FoFCou.
 Harris En= -532.741224519390    
 JPrj=0 DoOrth=F DoCkMO=F.
 Leave Link  401 at Wed Mar 11 15:21:40 2020, MaxMem=    33554432 cpu:         0.8
 (Enter /usr/local/gaussian09d01/g09/l502.exe)
 Closed shell SCF:
 Using DIIS extrapolation, IDIIS=  1040.
 Integral symmetry usage will be decided dynamically.
 Keep R1 ints in memory in canonical form, NReq=24030401.
 IVT=       60528 IEndB=       60528 NGot=    33554432 MDV=    10465614
 LenX=    10465614 LenY=    10451717
 Requested convergence on RMS density matrix=1.00D-08 within 128 cycles.
 Requested convergence on MAX density matrix=1.00D-06.
 Requested convergence on             energy=1.00D-06.
 No special actions if energy rises.
 FoFCou: FMM=F IPFlag=           0 FMFlag=           0 FMFlg1=           0
         NFxFlg=           0 DoJE=F BraDBF=F KetDBF=F FulRan=T
         wScrn=  0.000000 ICntrl=     600 IOpCl=  0 I1Cent=           0 NGrid=           0
         NMat0=    1 NMatS0=   6786 NMatT0=    0 NMatD0=    1 NMtDS0=    0 NMtDT0=    0
 Symmetry not used in FoFCou.
 Integral accuracy reduced to 1.0D-05 until final iterations.

 Cycle   1  Pass 0  IDiag  1:
 E= -532.654386966998    
 DIIS: error= 5.22D-02 at cycle   1 NSaved=   1.
 NSaved= 1 IEnMin= 1 EnMin= -532.654386966998     IErMin= 1 ErrMin= 5.22D-02
 ErrMax= 5.22D-02  0.00D+00 EMaxC= 1.00D-01 BMatC= 3.15D-01 BMatP= 3.15D-01
 IDIUse=3 WtCom= 4.78D-01 WtEn= 5.22D-01
 Coeff-Com:  0.100D+01
 Coeff-En:   0.100D+01
 Coeff:      0.100D+01
 Gap=     0.273 Goal=   None    Shift=    0.000
 GapD=    0.273 DampG=1.000 DampE=0.500 DampFc=0.5000 IDamp=-1.
 Damping current iteration by 5.00D-01
 RMSDP=8.38D-03 MaxDP=1.64D-01              OVMax= 1.78D-01

 Cycle   2  Pass 0  IDiag  1:
 E= -532.780470792994     Delta-E=       -0.126083825996 Rises=F Damp=T
 DIIS: error= 1.06D-02 at cycle   2 NSaved=   2.
 NSaved= 2 IEnMin= 2 EnMin= -532.780470792994     IErMin= 2 ErrMin= 1.06D-02
 ErrMax= 1.06D-02  0.00D+00 EMaxC= 1.00D-01 BMatC= 1.89D-02 BMatP= 3.15D-01
 IDIUse=3 WtCom= 8.94D-01 WtEn= 1.06D-01
 Coeff-Com:  0.318D-01 0.968D+00
 Coeff-En:   0.355D-01 0.965D+00
 Coeff:      0.322D-01 0.968D+00
 Gap=     0.361 Goal=   None    Shift=    0.000
 RMSDP=2.12D-03 MaxDP=3.52D-02 DE=-1.26D-01 OVMax= 1.10D-01

 Cycle   3  Pass 0  IDiag  1:
 E= -532.910789476042     Delta-E=       -0.130318683048 Rises=F Damp=F
 DIIS: error= 1.21D-02 at cycle   3 NSaved=   3.
 NSaved= 3 IEnMin= 3 EnMin= -532.910789476042     IErMin= 2 ErrMin= 1.06D-02
 ErrMax= 1.21D-02  0.00D+00 EMaxC= 1.00D-01 BMatC= 1.51D-02 BMatP= 1.89D-02
 IDIUse=3 WtCom= 8.79D-01 WtEn= 1.21D-01
 Coeff-Com: -0.238D-01 0.475D+00 0.549D+00
 Coeff-En:   0.000D+00 0.000D+00 0.100D+01
 Coeff:     -0.209D-01 0.418D+00 0.603D+00
 Gap=     0.334 Goal=   None    Shift=    0.000
 RMSDP=1.40D-03 MaxDP=3.65D-02 DE=-1.30D-01 OVMax= 5.69D-02

 Cycle   4  Pass 0  IDiag  1:
 E= -532.920461879817     Delta-E=       -0.009672403774 Rises=F Damp=F
 DIIS: error= 7.68D-03 at cycle   4 NSaved=   4.
 NSaved= 4 IEnMin= 4 EnMin= -532.920461879817     IErMin= 4 ErrMin= 7.68D-03
 ErrMax= 7.68D-03  0.00D+00 EMaxC= 1.00D-01 BMatC= 3.75D-03 BMatP= 1.51D-02
 IDIUse=3 WtCom= 9.23D-01 WtEn= 7.68D-02
 Coeff-Com: -0.673D-02 0.365D-01 0.339D+00 0.631D+00
 Coeff-En:   0.000D+00 0.000D+00 0.198D+00 0.802D+00
 Coeff:     -0.622D-02 0.337D-01 0.328D+00 0.645D+00
 Gap=     0.332 Goal=   None    Shift=    0.000
 RMSDP=5.35D-04 MaxDP=1.16D-02 DE=-9.67D-03 OVMax= 1.87D-02

 Cycle   5  Pass 0  IDiag  1:
 E= -532.923165222839     Delta-E=       -0.002703343022 Rises=F Damp=F
 DIIS: error= 1.19D-03 at cycle   5 NSaved=   5.
 NSaved= 5 IEnMin= 5 EnMin= -532.923165222839     IErMin= 5 ErrMin= 1.19D-03
 ErrMax= 1.19D-03  0.00D+00 EMaxC= 1.00D-01 BMatC= 1.67D-04 BMatP= 3.75D-03
 IDIUse=3 WtCom= 9.88D-01 WtEn= 1.19D-02
 Coeff-Com: -0.948D-03-0.737D-02 0.142D+00 0.333D+00 0.533D+00
 Coeff-En:   0.000D+00 0.000D+00 0.000D+00 0.000D+00 0.100D+01
 Coeff:     -0.937D-03-0.728D-02 0.141D+00 0.329D+00 0.539D+00
 Gap=     0.329 Goal=   None    Shift=    0.000
 RMSDP=1.08D-04 MaxDP=2.16D-03 DE=-2.70D-03 OVMax= 3.74D-03

 Cycle   6  Pass 0  IDiag  1:
 E= -532.923312354576     Delta-E=       -0.000147131737 Rises=F Damp=F
 DIIS: error= 2.88D-04 at cycle   6 NSaved=   6.
 NSaved= 6 IEnMin= 6 EnMin= -532.923312354576     IErMin= 6 ErrMin= 2.88D-04
 ErrMax= 2.88D-04  0.00D+00 EMaxC= 1.00D-01 BMatC= 4.29D-06 BMatP= 1.67D-04
 IDIUse=3 WtCom= 9.97D-01 WtEn= 2.88D-03
 Coeff-Com:  0.554D-03-0.387D-02 0.178D-01 0.345D-01 0.137D+00 0.814D+00
 Coeff-En:   0.000D+00 0.000D+00 0.000D+00 0.000D+00 0.000D+00 0.100D+01
 Coeff:      0.552D-03-0.386D-02 0.177D-01 0.344D-01 0.137D+00 0.814D+00
 Gap=     0.329 Goal=   None    Shift=    0.000
 RMSDP=2.64D-05 MaxDP=3.90D-04 DE=-1.47D-04 OVMax= 5.69D-04

 Cycle   7  Pass 0  IDiag  1:
 E= -532.923316401996     Delta-E=       -0.000004047420 Rises=F Damp=F
 DIIS: error= 9.18D-05 at cycle   7 NSaved=   7.
 NSaved= 7 IEnMin= 7 EnMin= -532.923316401996     IErMin= 7 ErrMin= 9.18D-05
 ErrMax= 9.18D-05  0.00D+00 EMaxC= 1.00D-01 BMatC= 5.37D-07 BMatP= 4.29D-06
 IDIUse=1 WtCom= 1.00D+00 WtEn= 0.00D+00
 Coeff-Com:  0.423D-03-0.600D-03-0.125D-01-0.357D-01-0.205D-01 0.264D+00
 Coeff-Com:  0.805D+00
 Coeff:      0.423D-03-0.600D-03-0.125D-01-0.357D-01-0.205D-01 0.264D+00
 Coeff:      0.805D+00
 Gap=     0.329 Goal=   None    Shift=    0.000
 RMSDP=1.31D-05 MaxDP=2.26D-04 DE=-4.05D-06 OVMax= 3.13D-04

 Cycle   8  Pass 0  IDiag  1:
 E= -532.923317042531     Delta-E=       -0.000000640536 Rises=F Damp=F
 DIIS: error= 2.55D-05 at cycle   8 NSaved=   8.
 NSaved= 8 IEnMin= 8 EnMin= -532.923317042531     IErMin= 8 ErrMin= 2.55D-05
 ErrMax= 2.55D-05  0.00D+00 EMaxC= 1.00D-01 BMatC= 5.19D-08 BMatP= 5.37D-07
 IDIUse=1 WtCom= 1.00D+00 WtEn= 0.00D+00
 Coeff-Com:  0.107D-03 0.106D-03-0.515D-02-0.146D-01-0.178D-01 0.834D-02
 Coeff-Com:  0.272D+00 0.757D+00
 Coeff:      0.107D-03 0.106D-03-0.515D-02-0.146D-01-0.178D-01 0.834D-02
 Coeff:      0.272D+00 0.757D+00
 Gap=     0.329 Goal=   None    Shift=    0.000
 RMSDP=3.49D-06 MaxDP=4.99D-05 DE=-6.41D-07 OVMax= 9.50D-05

 Initial convergence to 1.0D-05 achieved.  Increase integral accuracy.
 Cycle   9  Pass 1  IDiag  1:
 E= -532.923515317101     Delta-E=       -0.000198274570 Rises=F Damp=F
 DIIS: error= 1.35D-04 at cycle   1 NSaved=   1.
 NSaved= 1 IEnMin= 1 EnMin= -532.923515317101     IErMin= 1 ErrMin= 1.35D-04
 ErrMax= 1.35D-04  0.00D+00 EMaxC= 1.00D-01 BMatC= 1.73D-06 BMatP= 1.73D-06
 IDIUse=3 WtCom= 9.99D-01 WtEn= 1.35D-03
 Coeff-Com:  0.100D+01
 Coeff-En:   0.100D+01
 Coeff:      0.100D+01
 Gap=     0.329 Goal=   None    Shift=    0.000
 RMSDP=3.49D-06 MaxDP=4.99D-05 DE=-1.98D-04 OVMax= 1.98D-04

 Cycle  10  Pass 1  IDiag  1:
 E= -532.923516892561     Delta-E=       -0.000001575459 Rises=F Damp=F
 DIIS: error= 6.97D-05 at cycle   2 NSaved=   2.
 NSaved= 2 IEnMin= 2 EnMin= -532.923516892561     IErMin= 2 ErrMin= 6.97D-05
 ErrMax= 6.97D-05  0.00D+00 EMaxC= 1.00D-01 BMatC= 3.38D-07 BMatP= 1.73D-06
 IDIUse=1 WtCom= 1.00D+00 WtEn= 0.00D+00
 Coeff-Com:  0.231D+00 0.769D+00
 Coeff:      0.231D+00 0.769D+00
 Gap=     0.329 Goal=   None    Shift=    0.000
 RMSDP=7.08D-06 MaxDP=1.34D-04 DE=-1.58D-06 OVMax= 1.62D-04

 Cycle  11  Pass 1  IDiag  1:
 E= -532.923517139761     Delta-E=       -0.000000247201 Rises=F Damp=F
 DIIS: error= 2.86D-05 at cycle   3 NSaved=   3.
 NSaved= 3 IEnMin= 3 EnMin= -532.923517139761     IErMin= 3 ErrMin= 2.86D-05
 ErrMax= 2.86D-05  0.00D+00 EMaxC= 1.00D-01 BMatC= 1.21D-07 BMatP= 3.38D-07
 IDIUse=1 WtCom= 1.00D+00 WtEn= 0.00D+00
 Coeff-Com: -0.319D-01 0.358D+00 0.674D+00
 Coeff:     -0.319D-01 0.358D+00 0.674D+00
 Gap=     0.329 Goal=   None    Shift=    0.000
 RMSDP=3.31D-06 MaxDP=7.03D-05 DE=-2.47D-07 OVMax= 9.25D-05

 Cycle  12  Pass 1  IDiag  1:
 E= -532.923517238775     Delta-E=       -0.000000099014 Rises=F Damp=F
 DIIS: error= 8.87D-06 at cycle   4 NSaved=   4.
 NSaved= 4 IEnMin= 4 EnMin= -532.923517238775     IErMin= 4 ErrMin= 8.87D-06
 ErrMax= 8.87D-06  0.00D+00 EMaxC= 1.00D-01 BMatC= 1.06D-08 BMatP= 1.21D-07
 IDIUse=1 WtCom= 1.00D+00 WtEn= 0.00D+00
 Coeff-Com: -0.297D-01 0.152D+00 0.353D+00 0.525D+00
 Coeff:     -0.297D-01 0.152D+00 0.353D+00 0.525D+00
 Gap=     0.329 Goal=   None    Shift=    0.000
 RMSDP=8.03D-07 MaxDP=1.71D-05 DE=-9.90D-08 OVMax= 2.96D-05

 Cycle  13  Pass 1  IDiag  1:
 E= -532.923517247561     Delta-E=       -0.000000008786 Rises=F Damp=F
 DIIS: error= 2.35D-06 at cycle   5 NSaved=   5.
 NSaved= 5 IEnMin= 5 EnMin= -532.923517247561     IErMin= 5 ErrMin= 2.35D-06
 ErrMax= 2.35D-06  0.00D+00 EMaxC= 1.00D-01 BMatC= 3.27D-10 BMatP= 1.06D-08
 IDIUse=1 WtCom= 1.00D+00 WtEn= 0.00D+00
 Coeff-Com: -0.535D-02 0.816D-02 0.305D-01 0.143D+00 0.824D+00
 Coeff:     -0.535D-02 0.816D-02 0.305D-01 0.143D+00 0.824D+00
 Gap=     0.329 Goal=   None    Shift=    0.000
 RMSDP=3.04D-07 MaxDP=5.62D-06 DE=-8.79D-09 OVMax= 7.19D-06

 Cycle  14  Pass 1  IDiag  1:
 E= -532.923517247777     Delta-E=       -0.000000000216 Rises=F Damp=F
 DIIS: error= 1.66D-06 at cycle   6 NSaved=   6.
 NSaved= 6 IEnMin= 6 EnMin= -532.923517247777     IErMin= 6 ErrMin= 1.66D-06
 ErrMax= 1.66D-06  0.00D+00 EMaxC= 1.00D-01 BMatC= 1.82D-10 BMatP= 3.27D-10
 IDIUse=1 WtCom= 1.00D+00 WtEn= 0.00D+00
 Coeff-Com:  0.149D-02-0.175D-01-0.349D-01 0.115D-01 0.499D+00 0.541D+00
 Coeff:      0.149D-02-0.175D-01-0.349D-01 0.115D-01 0.499D+00 0.541D+00
 Gap=     0.329 Goal=   None    Shift=    0.000
 RMSDP=1.09D-07 MaxDP=3.20D-06 DE=-2.16D-10 OVMax= 5.65D-06

 Cycle  15  Pass 1  IDiag  1:
 E= -532.923517247927     Delta-E=       -0.000000000150 Rises=F Damp=F
 DIIS: error= 3.50D-07 at cycle   7 NSaved=   7.
 NSaved= 7 IEnMin= 7 EnMin= -532.923517247927     IErMin= 7 ErrMin= 3.50D-07
 ErrMax= 3.50D-07  0.00D+00 EMaxC= 1.00D-01 BMatC= 6.56D-12 BMatP= 1.82D-10
 IDIUse=1 WtCom= 1.00D+00 WtEn= 0.00D+00
 Coeff-Com:  0.826D-03-0.576D-02-0.129D-01-0.561D-02 0.690D-01 0.188D+00
 Coeff-Com:  0.767D+00
 Coeff:      0.826D-03-0.576D-02-0.129D-01-0.561D-02 0.690D-01 0.188D+00
 Coeff:      0.767D+00
 Gap=     0.329 Goal=   None    Shift=    0.000
 RMSDP=3.99D-08 MaxDP=7.69D-07 DE=-1.50D-10 OVMax= 1.01D-06

 Cycle  16  Pass 1  IDiag  1:
 E= -532.923517247937     Delta-E=       -0.000000000010 Rises=F Damp=F
 DIIS: error= 7.43D-08 at cycle   8 NSaved=   8.
 NSaved= 8 IEnMin= 8 EnMin= -532.923517247937     IErMin= 8 ErrMin= 7.43D-08
 ErrMax= 7.43D-08  0.00D+00 EMaxC= 1.00D-01 BMatC= 1.15D-12 BMatP= 6.56D-12
 IDIUse=1 WtCom= 1.00D+00 WtEn= 0.00D+00
 Coeff-Com:  0.142D-03 0.551D-04-0.662D-03-0.370D-02-0.498D-01 0.120D-01
 Coeff-Com:  0.349D+00 0.693D+00
 Coeff:      0.142D-03 0.551D-04-0.662D-03-0.370D-02-0.498D-01 0.120D-01
 Coeff:      0.349D+00 0.693D+00
 Gap=     0.329 Goal=   None    Shift=    0.000
 RMSDP=1.36D-08 MaxDP=2.58D-07 DE=-1.02D-11 OVMax= 4.27D-07

 Cycle  17  Pass 1  IDiag  1:
 E= -532.923517247922     Delta-E=        0.000000000016 Rises=F Damp=F
 DIIS: error= 3.14D-08 at cycle   9 NSaved=   9.
 NSaved= 9 IEnMin= 8 EnMin= -532.923517247937     IErMin= 9 ErrMin= 3.14D-08
 ErrMax= 3.14D-08  0.00D+00 EMaxC= 1.00D-01 BMatC= 9.09D-14 BMatP= 1.15D-12
 IDIUse=1 WtCom= 1.00D+00 WtEn= 0.00D+00
 Coeff-Com: -0.325D-04 0.590D-03 0.107D-02-0.500D-03-0.244D-01-0.122D-01
 Coeff-Com:  0.328D-01 0.233D+00 0.769D+00
 Coeff:     -0.325D-04 0.590D-03 0.107D-02-0.500D-03-0.244D-01-0.122D-01
 Coeff:      0.328D-01 0.233D+00 0.769D+00
 Gap=     0.329 Goal=   None    Shift=    0.000
 RMSDP=4.86D-09 MaxDP=9.02D-08 DE= 1.59D-11 OVMax= 2.01D-07

 SCF Done:  E(RM062X) =  -532.923517248     A.U. after   17 cycles
            NFock= 17  Conv=0.49D-08     -V/T= 2.0055
 KE= 5.300068423108D+02 PE=-2.405182244539D+03 EE= 7.556665342724D+02
 Leave Link  502 at Wed Mar 11 15:22:34 2020, MaxMem=    33554432 cpu:        53.8
 (Enter /usr/local/gaussian09d01/g09/l601.exe)
 Copying SCF densities to generalized density rwf, IOpCl= 0 IROHF=0.

 **********************************************************************

            Population analysis using the SCF density.

 **********************************************************************

 Orbital symmetries:
       Occupied  (A) (A) (A) (A) (A) (A) (A) (A) (A) (A) (A) (A)
                 (A) (A) (A) (A) (A) (A) (A) (A) (A) (A) (A) (A)
                 (A) (A) (A) (A) (A) (A) (A) (A) (A) (A) (A) (A)
                 (A) (A) (A) (A)
       Virtual   (A) (A) (A) (A) (A) (A) (A) (A) (A) (A) (A) (A)
                 (A) (A) (A) (A) (A) (A) (A) (A) (A) (A) (A) (A)
                 (A) (A) (A) (A) (A) (A) (A) (A) (A) (A) (A) (A)
                 (A) (A) (A) (A) (A) (A) (A) (A) (A) (A) (A) (A)
                 (A) (A) (A) (A) (A) (A) (A) (A) (A) (A) (A) (A)
                 (A) (A) (A) (A) (A) (A) (A) (A) (A) (A) (A) (A)
                 (A) (A) (A) (A)
 The electronic state is 1-A.
 Alpha  occ. eigenvalues --  -19.88673 -19.84111 -19.80611 -14.98793 -14.92956
 Alpha  occ. eigenvalues --  -10.89798 -10.86251 -10.78011 -10.75561 -10.63092
 Alpha  occ. eigenvalues --   -1.43120  -1.40329  -1.31321  -1.25641  -1.18459
 Alpha  occ. eigenvalues --   -1.06512  -0.97033  -0.93423  -0.90041  -0.86874
 Alpha  occ. eigenvalues --   -0.84294  -0.79467  -0.77248  -0.74115  -0.73565
 Alpha  occ. eigenvalues --   -0.73054  -0.72444  -0.69292  -0.66412  -0.64805
 Alpha  occ. eigenvalues --   -0.63789  -0.62020  -0.60750  -0.57110  -0.56889
 Alpha  occ. eigenvalues --   -0.56552  -0.55952  -0.54225  -0.51668  -0.49382
 Alpha virt. eigenvalues --   -0.16451  -0.12314  -0.06879  -0.03348  -0.01215
 Alpha virt. eigenvalues --   -0.00553   0.00964   0.01627   0.04607   0.05006
 Alpha virt. eigenvalues --    0.06498   0.07326   0.07923   0.10616   0.11087
 Alpha virt. eigenvalues --    0.11246   0.12198   0.12874   0.16096   0.18608
 Alpha virt. eigenvalues --    0.20451   0.23590   0.27798   0.38755   0.41385
 Alpha virt. eigenvalues --    0.43192   0.45846   0.46323   0.48115   0.48165
 Alpha virt. eigenvalues --    0.49643   0.51735   0.51985   0.54846   0.58019
 Alpha virt. eigenvalues --    0.58384   0.59567   0.63048   0.64107   0.67469
 Alpha virt. eigenvalues --    0.68275   0.70815   0.74175   0.75237   0.76656
 Alpha virt. eigenvalues --    0.78386   0.79079   0.80707   0.83688   0.84181
 Alpha virt. eigenvalues --    0.85941   0.87378   0.87828   0.88145   0.91022
 Alpha virt. eigenvalues --    0.92116   0.92439   0.94537   0.95123   0.96560
 Alpha virt. eigenvalues --    1.02292   1.04034   1.08913   1.11103   1.12104
 Alpha virt. eigenvalues --    1.15060   1.19175   1.28285   1.29880   1.33699
 Alpha virt. eigenvalues --    1.42250   1.54197   1.63638   1.76088   1.76767
 Alpha virt. eigenvalues --    1.86798
          Condensed to atoms (all electrons):
               1          2          3          4          5          6
     1  C    5.189321   0.375515   0.371681   0.000000   0.370172   0.370777
     2  H    0.375515   0.468734  -0.017914   0.000000  -0.019790  -0.020228
     3  H    0.371681  -0.017914   0.521136   0.000000  -0.029572  -0.030160
     4  H    0.000000   0.000000   0.000000   0.288409   0.000000   0.000000
     5  H    0.370172  -0.019790  -0.029572   0.000000   0.538160  -0.032260
     6  H    0.370777  -0.020228  -0.030160   0.000000  -0.032260   0.545408
     7  C    0.000000   0.000000  -0.000001  -0.005930   0.000000   0.000000
     8  C   -0.000004   0.000001   0.000083   0.000133  -0.000011  -0.000007
     9  C    0.000278   0.000037   0.001478   0.000053  -0.000154  -0.000131
    10  N    0.000000   0.000000  -0.000001   0.000024   0.000000   0.000000
    11  O   -0.001304   0.000015   0.003260   0.000349   0.000043   0.000016
    12  O   -0.005265   0.000175  -0.001617   0.000000  -0.000765  -0.000634
    13  C    0.000000   0.000000   0.000000  -0.015551   0.000000   0.000000
    14  H    0.000000   0.000000   0.000000   0.000015   0.000000   0.000000
    15  H    0.000000   0.000000   0.000000   0.003704   0.000000   0.000000
    16  H    0.000001   0.000000  -0.000002   0.000003   0.000000   0.000000
    17  H    0.000000   0.000000   0.000000  -0.000022   0.000000   0.000000
    18  H   -0.000001   0.000000   0.000000   0.000000   0.000000   0.000000
    19  H    0.027059  -0.000944   0.002071   0.000000   0.005208   0.004728
    20  N    0.000000   0.000000   0.000000   0.005731   0.000000   0.000000
    21  O    0.000000   0.000000   0.000000   0.257290   0.000000   0.000000
    22  H    0.000000   0.000000   0.000000  -0.000001   0.000000   0.000000
    23  H    0.000000   0.000000   0.000000  -0.000046   0.000000   0.000000
               7          8          9         10         11         12
     1  C    0.000000  -0.000004   0.000278   0.000000  -0.001304  -0.005265
     2  H    0.000000   0.000001   0.000037   0.000000   0.000015   0.000175
     3  H   -0.000001   0.000083   0.001478  -0.000001   0.003260  -0.001617
     4  H   -0.005930   0.000133   0.000053   0.000024   0.000349   0.000000
     5  H    0.000000  -0.000011  -0.000154   0.000000   0.000043  -0.000765
     6  H    0.000000  -0.000007  -0.000131   0.000000   0.000016  -0.000634
     7  C    5.432736   0.217079  -0.048112  -0.073873   0.007859   0.005364
     8  C    0.217079   5.569812   0.151303   0.193247  -0.124307  -0.148172
     9  C   -0.048112   0.151303   4.754135  -0.049321   0.494702   0.196051
    10  N   -0.073873   0.193247  -0.049321   7.095665   0.002201   0.001777
    11  O    0.007859  -0.124307   0.494702   0.002201   8.124719  -0.108471
    12  O    0.005364  -0.148172   0.196051   0.001777  -0.108471   8.416503
    13  C    0.264811  -0.016384  -0.007524  -0.007056   0.011368  -0.000518
    14  H    0.376085  -0.027630   0.005588  -0.001458   0.000418  -0.000025
    15  H    0.367335  -0.027391  -0.001955   0.003776   0.004675   0.000131
    16  H   -0.043386   0.385651  -0.026874  -0.035757   0.001070   0.000894
    17  H   -0.010367  -0.010871  -0.000595   0.095948   0.000196  -0.000074
    18  H    0.004844  -0.034178  -0.007453   0.320770   0.000225   0.013175
    19  H   -0.000158   0.005399  -0.018798  -0.000117  -0.000671   0.236998
    20  N   -0.099548   0.003826   0.000133  -0.075518  -0.003480   0.000053
    21  O   -0.064246   0.002733  -0.000506  -0.000165  -0.001634  -0.000001
    22  H   -0.000895  -0.029156   0.004134   0.322188  -0.000080  -0.000003
    23  H    0.003654  -0.000212  -0.000101   0.001467   0.000023   0.000003
              13         14         15         16         17         18
     1  C    0.000000   0.000000   0.000000   0.000001   0.000000  -0.000001
     2  H    0.000000   0.000000   0.000000   0.000000   0.000000   0.000000
     3  H    0.000000   0.000000   0.000000  -0.000002   0.000000   0.000000
     4  H   -0.015551   0.000015   0.003704   0.000003  -0.000022   0.000000
     5  H    0.000000   0.000000   0.000000   0.000000   0.000000   0.000000
     6  H    0.000000   0.000000   0.000000   0.000000   0.000000   0.000000
     7  C    0.264811   0.376085   0.367335  -0.043386  -0.010367   0.004844
     8  C   -0.016384  -0.027630  -0.027391   0.385651  -0.010871  -0.034178
     9  C   -0.007524   0.005588  -0.001955  -0.026874  -0.000595  -0.007453
    10  N   -0.007056  -0.001458   0.003776  -0.035757   0.095948   0.320770
    11  O    0.011368   0.000418   0.004675   0.001070   0.000196   0.000225
    12  O   -0.000518  -0.000025   0.000131   0.000894  -0.000074   0.013175
    13  C    4.626428  -0.035297  -0.031686   0.004109  -0.018770   0.000202
    14  H   -0.035297   0.440954  -0.015929  -0.003220  -0.000279  -0.000054
    15  H   -0.031686  -0.015929   0.464618  -0.000707   0.000390  -0.000101
    16  H    0.004109  -0.003220  -0.000707   0.459888   0.000996   0.000991
    17  H   -0.018770  -0.000279   0.000390   0.000996   0.251965  -0.000479
    18  H    0.000202  -0.000054  -0.000101   0.000991  -0.000479   0.337108
    19  H   -0.000011   0.000002  -0.000002  -0.000246  -0.000021  -0.000258
    20  N    0.314050  -0.001736   0.004443  -0.000318   0.235304   0.000286
    21  O    0.329048   0.001048  -0.002838  -0.000070   0.001077   0.000002
    22  H   -0.000239   0.001615  -0.000071  -0.003792  -0.001573  -0.020763
    23  H   -0.019250  -0.000129  -0.000065   0.000010  -0.002015  -0.000012
              19         20         21         22         23
     1  C    0.027059   0.000000   0.000000   0.000000   0.000000
     2  H   -0.000944   0.000000   0.000000   0.000000   0.000000
     3  H    0.002071   0.000000   0.000000   0.000000   0.000000
     4  H    0.000000   0.005731   0.257290  -0.000001  -0.000046
     5  H    0.005208   0.000000   0.000000   0.000000   0.000000
     6  H    0.004728   0.000000   0.000000   0.000000   0.000000
     7  C   -0.000158  -0.099548  -0.064246  -0.000895   0.003654
     8  C    0.005399   0.003826   0.002733  -0.029156  -0.000212
     9  C   -0.018798   0.000133  -0.000506   0.004134  -0.000101
    10  N   -0.000117  -0.075518  -0.000165   0.322188   0.001467
    11  O   -0.000671  -0.003480  -0.001634  -0.000080   0.000023
    12  O    0.236998   0.000053  -0.000001  -0.000003   0.000003
    13  C   -0.000011   0.314050   0.329048  -0.000239  -0.019250
    14  H    0.000002  -0.001736   0.001048   0.001615  -0.000129
    15  H   -0.000002   0.004443  -0.002838  -0.000071  -0.000065
    16  H   -0.000246  -0.000318  -0.000070  -0.003792   0.000010
    17  H   -0.000021   0.235304   0.001077  -0.001573  -0.002015
    18  H   -0.000258   0.000286   0.000002  -0.020763  -0.000012
    19  H    0.274704   0.000011   0.000000   0.000016  -0.000001
    20  N    0.000011   7.110375  -0.113213   0.000932   0.305970
    21  O    0.000000  -0.113213   8.138170   0.000002  -0.000642
    22  H    0.000016   0.000932   0.000002   0.369670  -0.000021
    23  H   -0.000001   0.305970  -0.000642  -0.000021   0.292578
 Mulliken charges:
               1
     1  C   -0.698230
     2  H    0.214398
     3  H    0.179555
     4  H    0.465838
     5  H    0.168969
     6  H    0.162490
     7  C   -0.333252
     8  C   -0.110945
     9  C    0.553631
    10  N   -0.793798
    11  O   -0.411193
    12  O   -0.605577
    13  C    0.602269
    14  H    0.260031
    15  H    0.231673
    16  H    0.260760
    17  H    0.459189
    18  H    0.385695
    19  H    0.465031
    20  N   -0.687302
    21  O   -0.546055
    22  H    0.358035
    23  H    0.418788
 Sum of Mulliken charges =   1.00000
 Mulliken charges with hydrogens summed into heavy atoms:
               1
     1  C    0.027182
     7  C    0.158452
     8  C    0.149815
     9  C    0.553631
    10  N   -0.050068
    11  O   -0.411193
    12  O   -0.140546
    13  C    0.602269
    20  N    0.190675
    21  O   -0.080217
 Electronic spatial extent (au):  <R**2>=           1994.7352
 Charge=              1.0000 electrons
 Dipole moment (field-independent basis, Debye):
    X=              4.6944    Y=              1.9534    Z=             -0.2040  Tot=              5.0887
 Quadrupole moment (field-independent basis, Debye-Ang):
   XX=            -33.5207   YY=            -48.1902   ZZ=            -47.8906
   XY=             -0.9435   XZ=             -3.5568   YZ=              1.1227
 Traceless Quadrupole moment (field-independent basis, Debye-Ang):
   XX=              9.6798   YY=             -4.9897   ZZ=             -4.6901
   XY=             -0.9435   XZ=             -3.5568   YZ=              1.1227
 Octapole moment (field-independent basis, Debye-Ang**2):
  XXX=            -21.0708  YYY=             15.9529  ZZZ=             12.1200  XYY=             23.7074
  XXY=            -17.3919  XXZ=             -1.0242  XZZ=             23.4434  YZZ=             -5.9672
  YYZ=             -5.6876  XYZ=              6.7480
 Hexadecapole moment (field-independent basis, Debye-Ang**3):
 XXXX=          -1432.1220 YYYY=           -428.5631 ZZZZ=           -196.4286 XXXY=             25.5011
 XXXZ=            -31.8805 YYYX=            -15.6520 YYYZ=             39.1318 ZZZX=             28.2872
 ZZZY=             -5.8570 XXYY=           -330.3467 XXZZ=           -289.7018 YYZZ=           -108.9048
 XXYZ=             10.5871 YYXZ=            -25.8017 ZZXY=            -30.2494
 N-N= 5.865853507083D+02 E-N=-2.405182245667D+03  KE= 5.300068423108D+02
 No NMR shielding tensors so no spin-rotation constants.
 Leave Link  601 at Wed Mar 11 15:22:34 2020, MaxMem=    33554432 cpu:         0.1
 (Enter /usr/local/gaussian09d01/g09/l9999.exe)
 1\1\GINC-KARURA\SP\RM062X\6-31G\C5H13N2O3(1+)\RTAKE\11-Mar-2020\0\\#p 
 M062X/6-31G\\chk calc\\1,1\C,0,3.8244827093,-1.1421954403,1.1722536895
 \H,0,4.7991130791,-1.6296142296,1.1738087066\H,0,3.0536140275,-1.91631
 25981,1.1608049439\H,0,-2.5404164533,-2.8449815916,-1.0143027735\H,0,3
 .7596064198,-0.5329179398,2.0782461803\H,0,3.7653236834,-0.5215414599,
 0.2739511938\C,0,-2.4015421216,-0.7054990209,0.4925625486\C,0,-1.33365
 59405,0.1932070443,1.1412705363\C,0,0.0219670887,-0.4703375096,0.95018
 6539\N,0,-1.3033048138,1.5291487733,0.5159452074\O,0,0.155929117,-1.61
 14628034,0.5169201899\O,0,1.0249223882,0.3533925539,1.2986559998\C,0,-
 2.1218894446,-0.9183373023,-0.9671127234\H,0,-3.3922993195,-0.24740233
 52,0.5964968545\H,0,-2.4191769452,-1.6699000591,1.0044364394\H,0,-1.52
 63044157,0.2394744244,2.2213878935\H,0,-1.5039021137,0.9607507017,-1.1
 704002294\H,0,-0.4105601818,1.997532273,0.6661507524\H,0,1.9244021587,
 -0.0399255055,1.2308186453\N,0,-1.7004573962,0.0692391922,-1.694919760
 7\O,0,-2.3368548152,-2.0716483117,-1.575178364\H,0,-2.0719005912,2.128
 556543,0.8078343392\H,0,-1.5144085005,-0.0545109172,-2.6852356964\\Ver
 sion=ES64L-G09RevD.01\State=1-A\HF=-532.9235172\RMSD=4.857e-09\Dipole=
 -1.8782737,0.6333963,-0.2812768\Quadrupole=6.9221346,-2.9476877,-3.974
 4469,1.9376697,2.649936,0.2474315\PG=C01 [X(C5H13N2O3)]\\@


 ONE THORN OF EXPERIENCE IS WORTH A WHOLE WILDERNESS OF
 WARNING....  LOWELL - AMONG MY BOOKS
 Job cpu time:       0 days  0 hours  0 minutes 55.2 seconds.
 File lengths (MBytes):  RWF=      7 Int=      0 D2E=      0 Chk=      2 Scr=      1
 Normal termination of Gaussian 09 at Wed Mar 11 15:22:34 2020.
