 Entering Gaussian System, Link 0=g09
 Input=lup_chk_1.gjf
 Output=lup_chk_1.log
 Initial command:
 /usr/local/gaussian09d01/g09/l1.exe "/scr/Gau-14767.inp" -scrdir="/scr/"
 Entering Link 1 = /usr/local/gaussian09d01/g09/l1.exe PID=     14768.
  
 Copyright (c) 1988,1990,1992,1993,1995,1998,2003,2009,2013,
            Gaussian, Inc.  All Rights Reserved.
  
 This is part of the Gaussian(R) 09 program.  It is based on
 the Gaussian(R) 03 system (copyright 2003, Gaussian, Inc.),
 the Gaussian(R) 98 system (copyright 1998, Gaussian, Inc.),
 the Gaussian(R) 94 system (copyright 1995, Gaussian, Inc.),
 the Gaussian 92(TM) system (copyright 1992, Gaussian, Inc.),
 the Gaussian 90(TM) system (copyright 1990, Gaussian, Inc.),
 the Gaussian 88(TM) system (copyright 1988, Gaussian, Inc.),
 the Gaussian 86(TM) system (copyright 1986, Carnegie Mellon
 University), and the Gaussian 82(TM) system (copyright 1983,
 Carnegie Mellon University). Gaussian is a federally registered
 trademark of Gaussian, Inc.
  
 This software contains proprietary and confidential information,
 including trade secrets, belonging to Gaussian, Inc.
  
 This software is provided under written license and may be
 used, copied, transmitted, or stored only in accord with that
 written license.
  
 The following legend is applicable only to US Government
 contracts under FAR:
  
                    RESTRICTED RIGHTS LEGEND
  
 Use, reproduction and disclosure by the US Government is
 subject to restrictions as set forth in subparagraphs (a)
 and (c) of the Commercial Computer Software - Restricted
 Rights clause in FAR 52.227-19.
  
 Gaussian, Inc.
 340 Quinnipiac St., Bldg. 40, Wallingford CT 06492
  
  
 ---------------------------------------------------------------
 Warning -- This program may not be used in any manner that
 competes with the business of Gaussian, Inc. or will provide
 assistance to any competitor of Gaussian, Inc.  The licensee
 of this program is prohibited from giving any competitor of
 Gaussian, Inc. access to this program.  By using this program,
 the user acknowledges that Gaussian, Inc. is engaged in the
 business of creating and licensing software in the field of
 computational chemistry and represents and warrants to the
 licensee that it is not a competitor of Gaussian, Inc. and that
 it will not use this program in any manner prohibited above.
 ---------------------------------------------------------------
  

 Cite this work as:
 Gaussian 09, Revision D.01,
 M. J. Frisch, G. W. Trucks, H. B. Schlegel, G. E. Scuseria, 
 M. A. Robb, J. R. Cheeseman, G. Scalmani, V. Barone, B. Mennucci, 
 G. A. Petersson, H. Nakatsuji, M. Caricato, X. Li, H. P. Hratchian, 
 A. F. Izmaylov, J. Bloino, G. Zheng, J. L. Sonnenberg, M. Hada, 
 M. Ehara, K. Toyota, R. Fukuda, J. Hasegawa, M. Ishida, T. Nakajima, 
 Y. Honda, O. Kitao, H. Nakai, T. Vreven, J. A. Montgomery, Jr., 
 J. E. Peralta, F. Ogliaro, M. Bearpark, J. J. Heyd, E. Brothers, 
 K. N. Kudin, V. N. Staroverov, T. Keith, R. Kobayashi, J. Normand, 
 K. Raghavachari, A. Rendell, J. C. Burant, S. S. Iyengar, J. Tomasi, 
 M. Cossi, N. Rega, J. M. Millam, M. Klene, J. E. Knox, J. B. Cross, 
 V. Bakken, C. Adamo, J. Jaramillo, R. Gomperts, R. E. Stratmann, 
 O. Yazyev, A. J. Austin, R. Cammi, C. Pomelli, J. W. Ochterski, 
 R. L. Martin, K. Morokuma, V. G. Zakrzewski, G. A. Voth, 
 P. Salvador, J. J. Dannenberg, S. Dapprich, A. D. Daniels, 
 O. Farkas, J. B. Foresman, J. V. Ortiz, J. Cioslowski, 
 and D. J. Fox, Gaussian, Inc., Wallingford CT, 2013.
 
 ******************************************
 Gaussian 09:  ES64L-G09RevD.01 24-Apr-2013
                11-Mar-2020 
 ******************************************
 --------------
 #p M062X/6-31G
 --------------
 1/38=1/1;
 2/12=2,17=6,18=5,40=1/2;
 3/5=1,6=6,11=2,16=1,25=1,30=1,74=-55/1,2,3;
 4//1;
 5/5=2,38=5/2;
 6/7=2,8=2,9=2,10=2,28=1/1;
 99/5=1,9=1/99;
 Leave Link    1 at Wed Mar 11 15:24:23 2020, MaxMem=           0 cpu:         0.0
 (Enter /usr/local/gaussian09d01/g09/l101.exe)
 --------
 chk calc
 --------
 Symbolic Z-matrix:
 Charge =  1 Multiplicity = 1
 C                     3.82448  -1.1422    1.17225 
 H                     4.79911  -1.62961   1.17381 
 H                     3.05361  -1.91631   1.1608 
 H                    -2.54042  -2.84498  -1.0143 
 H                     3.75961  -0.53292   2.07825 
 H                     3.76532  -0.52154   0.27395 
 C                    -2.40154  -0.7055    0.49256 
 C                    -1.33366   0.19321   1.14127 
 C                     0.02197  -0.47034   0.95019 
 N                    -1.3033    1.52915   0.51595 
 O                     0.1898   -2.209     0.29564 
 O                     1.02492   0.35339   1.29866 
 C                    -2.12189  -0.91834  -0.96711 
 H                    -3.3923   -0.2474    0.5965 
 H                    -2.41918  -1.6699    1.00444 
 H                    -1.5263    0.23947   2.22139 
 H                    -1.5039    0.96075  -1.1704 
 H                    -0.41056   1.99753   0.66615 
 H                     1.9244   -0.03993   1.23082 
 N                    -1.70046   0.06924  -1.69492 
 O                    -2.33685  -2.07165  -1.57518 
 H                    -2.0719    2.12856   0.80783 
 H                    -1.51441  -0.05451  -2.68524 
 
 NAtoms=     23 NQM=       23 NQMF=       0 NMMI=      0 NMMIF=      0
                NMic=       0 NMicF=      0.
                    Isotopes and Nuclear Properties:
 (Nuclear quadrupole moments (NQMom) in fm**2, nuclear magnetic moments (NMagM)
  in nuclear magnetons)

  Atom         1           2           3           4           5           6           7           8           9          10
 IAtWgt=          12           1           1           1           1           1          12          12          12          14
 AtmWgt=  12.0000000   1.0078250   1.0078250   1.0078250   1.0078250   1.0078250  12.0000000  12.0000000  12.0000000  14.0030740
 NucSpn=           0           1           1           1           1           1           0           0           0           2
 AtZEff=   0.0000000   0.0000000   0.0000000   0.0000000   0.0000000   0.0000000   0.0000000   0.0000000   0.0000000   0.0000000
 NQMom=    0.0000000   0.0000000   0.0000000   0.0000000   0.0000000   0.0000000   0.0000000   0.0000000   0.0000000   2.0440000
 NMagM=    0.0000000   2.7928460   2.7928460   2.7928460   2.7928460   2.7928460   0.0000000   0.0000000   0.0000000   0.4037610
 AtZNuc=   6.0000000   1.0000000   1.0000000   1.0000000   1.0000000   1.0000000   6.0000000   6.0000000   6.0000000   7.0000000

  Atom        11          12          13          14          15          16          17          18          19          20
 IAtWgt=          16          16          12           1           1           1           1           1           1          14
 AtmWgt=  15.9949146  15.9949146  12.0000000   1.0078250   1.0078250   1.0078250   1.0078250   1.0078250   1.0078250  14.0030740
 NucSpn=           0           0           0           1           1           1           1           1           1           2
 AtZEff=   0.0000000   0.0000000   0.0000000   0.0000000   0.0000000   0.0000000   0.0000000   0.0000000   0.0000000   0.0000000
 NQMom=    0.0000000   0.0000000   0.0000000   0.0000000   0.0000000   0.0000000   0.0000000   0.0000000   0.0000000   2.0440000
 NMagM=    0.0000000   0.0000000   0.0000000   2.7928460   2.7928460   2.7928460   2.7928460   2.7928460   2.7928460   0.4037610
 AtZNuc=   8.0000000   8.0000000   6.0000000   1.0000000   1.0000000   1.0000000   1.0000000   1.0000000   1.0000000   7.0000000

  Atom        21          22          23
 IAtWgt=          16           1           1
 AtmWgt=  15.9949146   1.0078250   1.0078250
 NucSpn=           0           1           1
 AtZEff=   0.0000000   0.0000000   0.0000000
 NQMom=    0.0000000   0.0000000   0.0000000
 NMagM=    0.0000000   2.7928460   2.7928460
 AtZNuc=   8.0000000   1.0000000   1.0000000
 Leave Link  101 at Wed Mar 11 15:24:23 2020, MaxMem=    33554432 cpu:         0.1
 (Enter /usr/local/gaussian09d01/g09/l202.exe)
                          Input orientation:                          
 ---------------------------------------------------------------------
 Center     Atomic      Atomic             Coordinates (Angstroms)
 Number     Number       Type             X           Y           Z
 ---------------------------------------------------------------------
      1          6           0        3.824483   -1.142195    1.172254
      2          1           0        4.799113   -1.629614    1.173809
      3          1           0        3.053614   -1.916313    1.160805
      4          1           0       -2.540416   -2.844982   -1.014303
      5          1           0        3.759606   -0.532918    2.078246
      6          1           0        3.765324   -0.521541    0.273951
      7          6           0       -2.401542   -0.705499    0.492563
      8          6           0       -1.333656    0.193207    1.141271
      9          6           0        0.021967   -0.470338    0.950187
     10          7           0       -1.303305    1.529149    0.515945
     11          8           0        0.189796   -2.209000    0.295640
     12          8           0        1.024922    0.353393    1.298656
     13          6           0       -2.121889   -0.918337   -0.967113
     14          1           0       -3.392299   -0.247402    0.596497
     15          1           0       -2.419177   -1.669900    1.004436
     16          1           0       -1.526304    0.239474    2.221388
     17          1           0       -1.503902    0.960751   -1.170400
     18          1           0       -0.410560    1.997532    0.666151
     19          1           0        1.924402   -0.039926    1.230819
     20          7           0       -1.700457    0.069239   -1.694920
     21          8           0       -2.336855   -2.071648   -1.575178
     22          1           0       -2.071901    2.128557    0.807834
     23          1           0       -1.514409   -0.054511   -2.685236
 ---------------------------------------------------------------------
                    Distance matrix (angstroms):
                    1          2          3          4          5
     1  C    0.000000
     2  H    1.089717   0.000000
     3  H    1.092532   1.768935   0.000000
     4  H    6.942078   7.754589   6.073442   0.000000
     5  H    1.093732   1.761058   1.803858   7.389167   0.000000
     6  H    1.093462   1.762467   1.799563   6.842538   1.804340
     7  C    6.278222   7.291606   5.627730   2.620556   6.364270
     8  C    5.328288   6.398015   4.868120   3.915783   5.229388
     9  C    3.867794   4.920879   3.365425   4.007987   3.904662
    10  N    5.819023   6.902903   5.591940   4.796365   5.685594
    11  O    3.888119   4.727861   3.005932   3.094266   4.327873
    12  O    3.176523   4.265257   3.047319   5.318930   2.978557
    13  C    6.323476   7.279405   5.684173   1.972143   6.634362
    14  H    7.294799   8.327247   6.682328   3.172979   7.309368
    15  H    6.268167   7.220389   5.480567   2.338979   6.373630
    16  H    5.624999   6.678459   5.171838   4.583883   5.343962
    17  H    6.188869   7.206477   5.872220   3.947446   6.363118
    18  H    5.296189   6.368250   5.250083   5.550689   5.078138
    19  H    2.197438   3.285472   2.191084   5.730926   2.080661
    20  N    6.341389   7.304801   5.890567   3.108288   6.664208
    21  O    6.809871   7.659919   6.047056   0.976762   7.272004
    22  H    6.752626   7.840192   6.538842   5.317497   6.534820
    23  H    6.675855   7.565298   6.255011   3.410489   7.122841
                    6          7          8          9         10
     6  H    0.000000
     7  C    6.173481   0.000000
     8  C    5.221370   1.539115   0.000000
     9  C    3.804292   2.477522   1.521354   0.000000
    10  N    5.473106   2.490045   1.475362   2.437797   0.000000
    11  O    3.953781   3.002387   2.967591   1.865354   4.031332
    12  O    3.053740   3.675826   2.369245   1.343831   2.723175
    13  C    6.029674   1.501385   2.510403   2.910818   2.976530
    14  H    7.170129   1.096474   2.174610   3.439769   2.743450
    15  H    6.332486   1.091969   2.160613   2.720492   3.423114
    16  H    5.689726   2.155888   1.098138   2.125307   2.149773
    17  H    5.661103   2.519443   2.441706   2.978788   1.790831
    18  H    4.892602   3.361625   2.081690   2.521535   1.019283
    19  H    2.129916   4.438671   3.267616   1.970601   3.659389
    20  N    5.839541   2.424215   2.862497   3.202261   2.678990
    21  O    6.561912   2.479133   3.676285   3.808636   4.290310
    22  H    6.432825   2.870528   2.098038   3.340478   1.017462
    23  H    6.070459   3.362914   3.838774   3.968584   3.577723
                   11         12         13         14         15
    11  O    0.000000
    12  O    2.875645   0.000000
    13  C    2.933299   4.080861   0.000000
    14  H    4.095093   4.512852   2.123434   0.000000
    15  H    2.756766   4.005259   2.130782   1.771124   0.000000
    16  H    3.556477   2.715358   3.444094   2.521757   2.433907
    17  H    3.881392   3.586095   1.988519   2.854401   3.533832
    18  H    4.265280   2.272415   3.754796   3.733008   4.195121
    19  H    2.930580   0.984055   4.687748   5.358426   4.644862
    20  N    3.567318   4.058317   1.297157   2.865865   3.290545
    21  O    3.146870   5.043936   1.321393   3.026220   2.612009
    22  H    4.918537   3.603113   3.526542   2.726407   3.819362
    23  H    4.053610   4.741938   2.016724   3.785954   4.128168
                   16         17         18         19         20
    16  H    0.000000
    17  H    3.467704   0.000000
    18  H    2.598926   2.375549   0.000000
    19  H    3.600926   4.303542   3.149942   0.000000
    20  N    3.923872   1.052876   3.310106   4.659557   0.000000
    21  O    4.517986   3.170662   5.029155   5.491796   2.236680
    22  H    2.421661   2.366391   1.672511   4.566362   3.262290
    23  H    4.915437   1.823621   4.081808   5.211632   1.015211
                   21         22         23
    21  O    0.000000
    22  H    4.836390   0.000000
    23  H    2.444890   4.156696   0.000000
 Stoichiometry    C5H13N2O3(1+)
 Framework group  C1[X(C5H13N2O3)]
 Deg. of freedom    63
 Full point group                 C1      NOp   1
 Largest Abelian subgroup         C1      NOp   1
 Largest concise Abelian subgroup C1      NOp   1
                         Standard orientation:                         
 ---------------------------------------------------------------------
 Center     Atomic      Atomic             Coordinates (Angstroms)
 Number     Number       Type             X           Y           Z
 ---------------------------------------------------------------------
      1          6           0       -4.384324   -0.806294    0.380891
      2          1           0       -5.296037   -1.392840    0.491468
      3          1           0       -3.677739   -1.380744   -0.222741
      4          1           0        2.308290   -2.256874   -0.758050
      5          1           0       -4.654197    0.131941   -0.112195
      6          1           0       -3.982899   -0.625133    1.381739
      7          6           0        1.648506    0.269128   -0.984576
      8          6           0        0.429672    1.178830   -0.748434
      9          6           0       -0.765764    0.293772   -0.428866
     10          7           0        0.657110    2.099729    0.381571
     11          8           0       -0.703458   -1.560842   -0.618787
     12          8           0       -1.813040    1.019266   -0.001370
     13          6           0        1.933141   -0.584393    0.217357
     14          1           0        2.535156    0.876855   -1.200846
     15          1           0        1.457693   -0.370650   -1.848677
     16          1           0        0.204048    1.708994   -1.683274
     17          1           0        1.466255    0.908074    1.445676
     18          1           0       -0.219304    2.441413    0.774113
     19          1           0       -2.627589    0.498922    0.183332
     20          7           0        1.830979   -0.078877    1.407581
     21          8           0        2.342108   -1.837389    0.123398
     22          1           0        1.269605    2.878510    0.150101
     23          1           0        2.027829   -0.638959    2.231118
 ---------------------------------------------------------------------
 Rotational constants (GHZ):      1.6419375      0.7173625      0.5891375
 Leave Link  202 at Wed Mar 11 15:24:23 2020, MaxMem=    33554432 cpu:         0.0
 (Enter /usr/local/gaussian09d01/g09/l301.exe)
 Standard basis: 6-31G (6D, 7F)
 Ernie: Thresh=  0.10000D-02 Tol=  0.10000D-05 Strict=F.
 There are   116 symmetry adapted cartesian basis functions of A   symmetry.
 There are   116 symmetry adapted basis functions of A   symmetry.
   116 basis functions,   272 primitive gaussians,   116 cartesian basis functions
    40 alpha electrons       40 beta electrons
       nuclear repulsion energy       570.6238209518 Hartrees.
 IExCor= 4336 DFT=T Ex+Corr=M062X ExCW=0 ScaHFX=  0.540000
 ScaDFX=  1.000000  1.000000  1.000000  1.000000 ScalE2=  1.000000  1.000000
 IRadAn=      0 IRanWt=     -1 IRanGd=            0 ICorTp=0 IEmpDi=  4
 NAtoms=   23 NActive=   23 NUniq=   23 SFac= 1.00D+00 NAtFMM=   60 NAOKFM=F Big=F
 Integral buffers will be    131072 words long.
 Raffenetti 2 integral format.
 Two-electron integral symmetry is turned on.
 Leave Link  301 at Wed Mar 11 15:24:23 2020, MaxMem=    33554432 cpu:         0.0
 (Enter /usr/local/gaussian09d01/g09/l302.exe)
 NPDir=0 NMtPBC=     1 NCelOv=     1 NCel=       1 NClECP=     1 NCelD=      1
         NCelK=      1 NCelE2=     1 NClLst=     1 CellRange=     0.0.
 One-electron integrals computed using PRISM.
 NBasis=   116 RedAO= T EigKep=  3.77D-03  NBF=   116
 NBsUse=   116 1.00D-06 EigRej= -1.00D+00 NBFU=   116
 Precomputing XC quadrature grid using
 IXCGrd= 4 IRadAn=           0 IRanWt=          -1 IRanGd=           0 AccXCQ= 0.00D+00.
 Generated NRdTot=       0 NPtTot=           0 NUsed=           0 NTot=          32
 NSgBfM=   115   115   115   115   115 MxSgAt=    23 MxSgA2=    23.
 Leave Link  302 at Wed Mar 11 15:24:23 2020, MaxMem=    33554432 cpu:         0.3
 (Enter /usr/local/gaussian09d01/g09/l303.exe)
 DipDrv:  MaxL=1.
 Leave Link  303 at Wed Mar 11 15:24:23 2020, MaxMem=    33554432 cpu:         0.0
 (Enter /usr/local/gaussian09d01/g09/l401.exe)
 ExpMin= 1.61D-01 ExpMax= 5.48D+03 ExpMxC= 8.25D+02 IAcc=1 IRadAn=         1 AccDes= 0.00D+00
 Harris functional with IExCor= 1009 and IRadAn=       1 diagonalized for initial guess.
 HarFok:  IExCor= 1009 AccDes= 0.00D+00 IRadAn=         1 IDoV= 1 UseB2=F ITyADJ=14
 ICtDFT=  3500011 ScaDFX=  1.000000  1.000000  1.000000  1.000000
 FoFCou: FMM=F IPFlag=           0 FMFlag=      100000 FMFlg1=           0
         NFxFlg=           0 DoJE=T BraDBF=F KetDBF=T FulRan=T
         wScrn=  0.000000 ICntrl=     500 IOpCl=  0 I1Cent=   200000004 NGrid=           0
         NMat0=    1 NMatS0=      1 NMatT0=    0 NMatD0=    1 NMtDS0=    0 NMtDT0=    0
 Petite list used in FoFCou.
 Harris En= -532.605616844497    
 JPrj=0 DoOrth=F DoCkMO=F.
 Leave Link  401 at Wed Mar 11 15:24:24 2020, MaxMem=    33554432 cpu:         0.8
 (Enter /usr/local/gaussian09d01/g09/l502.exe)
 Closed shell SCF:
 Using DIIS extrapolation, IDIIS=  1040.
 Integral symmetry usage will be decided dynamically.
 Keep R1 ints in memory in canonical form, NReq=24030401.
 IVT=       60528 IEndB=       60528 NGot=    33554432 MDV=    10465614
 LenX=    10465614 LenY=    10451717
 Requested convergence on RMS density matrix=1.00D-08 within 128 cycles.
 Requested convergence on MAX density matrix=1.00D-06.
 Requested convergence on             energy=1.00D-06.
 No special actions if energy rises.
 FoFCou: FMM=F IPFlag=           0 FMFlag=           0 FMFlg1=           0
         NFxFlg=           0 DoJE=F BraDBF=F KetDBF=F FulRan=T
         wScrn=  0.000000 ICntrl=     600 IOpCl=  0 I1Cent=           0 NGrid=           0
         NMat0=    1 NMatS0=   6786 NMatT0=    0 NMatD0=    1 NMtDS0=    0 NMtDT0=    0
 Symmetry not used in FoFCou.
 Integral accuracy reduced to 1.0D-05 until final iterations.

 Cycle   1  Pass 0  IDiag  1:
 E= -532.334123212001    
 DIIS: error= 6.35D-02 at cycle   1 NSaved=   1.
 NSaved= 1 IEnMin= 1 EnMin= -532.334123212001     IErMin= 1 ErrMin= 6.35D-02
 ErrMax= 6.35D-02  0.00D+00 EMaxC= 1.00D-01 BMatC= 4.17D-01 BMatP= 4.17D-01
 IDIUse=3 WtCom= 3.65D-01 WtEn= 6.35D-01
 Coeff-Com:  0.100D+01
 Coeff-En:   0.100D+01
 Coeff:      0.100D+01
 Gap=    -0.149 Goal=   None    Shift=    0.000
 GapD=   -0.149 DampG=0.250 DampE=0.500 DampFc=0.2500 IDamp=-1.
 Damping current iteration by 2.50D-01
 RMSDP=1.80D-02 MaxDP=4.03D-01              OVMax= 8.64D-01

 Cycle   2  Pass 0  IDiag  1:
 E= -532.423668829820     Delta-E=       -0.089545617819 Rises=F Damp=T
 DIIS: error= 3.36D-02 at cycle   2 NSaved=   2.
 NSaved= 2 IEnMin= 2 EnMin= -532.423668829820     IErMin= 2 ErrMin= 3.36D-02
 ErrMax= 3.36D-02  0.00D+00 EMaxC= 1.00D-01 BMatC= 8.43D-02 BMatP= 4.17D-01
 IDIUse=3 WtCom= 6.64D-01 WtEn= 3.36D-01
 Coeff-Com: -0.118D+00 0.112D+01
 Coeff-En:   0.300D+00 0.700D+00
 Coeff:      0.224D-01 0.978D+00
 Gap=     0.193 Goal=   None    Shift=    0.000
 RMSDP=4.84D-03 MaxDP=7.71D-02 DE=-8.95D-02 OVMax= 8.28D-01

 Cycle   3  Pass 0  IDiag  1:
 E= -532.610070501337     Delta-E=       -0.186401671516 Rises=F Damp=F
 DIIS: error= 4.08D-02 at cycle   3 NSaved=   3.
 NSaved= 3 IEnMin= 3 EnMin= -532.610070501337     IErMin= 2 ErrMin= 3.36D-02
 ErrMax= 4.08D-02  0.00D+00 EMaxC= 1.00D-01 BMatC= 1.30D-01 BMatP= 8.43D-02
 IDIUse=2 WtCom= 0.00D+00 WtEn= 1.00D+00
 Coeff-En:   0.000D+00 0.286D-01 0.971D+00
 Coeff:      0.000D+00 0.286D-01 0.971D+00
 Gap=     0.295 Goal=   None    Shift=    0.000
 RMSDP=1.04D-02 MaxDP=2.80D-01 DE=-1.86D-01 OVMax= 6.55D-01

 Cycle   4  Pass 0  IDiag  1:
 E= -531.601442404884     Delta-E=        1.008628096453 Rises=F Damp=F
 DIIS: error= 1.84D-01 at cycle   4 NSaved=   4.
 NSaved= 4 IEnMin= 3 EnMin= -532.610070501337     IErMin= 2 ErrMin= 3.36D-02
 ErrMax= 1.84D-01  0.00D+00 EMaxC= 1.00D-01 BMatC= 1.11D+00 BMatP= 8.43D-02
 IDIUse=2 WtCom= 0.00D+00 WtEn= 1.00D+00
 Coeff-En:   0.000D+00 0.000D+00 0.849D+00 0.151D+00
 Coeff:      0.000D+00 0.000D+00 0.849D+00 0.151D+00
 Gap=     0.144 Goal=   None    Shift=    0.000
 RMSDP=6.78D-03 MaxDP=1.90D-01 DE= 1.01D+00 OVMax= 4.60D-01

 Cycle   5  Pass 0  IDiag  1:
 E= -532.669150323996     Delta-E=       -1.067707919113 Rises=F Damp=F
 DIIS: error= 4.06D-02 at cycle   5 NSaved=   5.
 NSaved= 5 IEnMin= 5 EnMin= -532.669150323996     IErMin= 2 ErrMin= 3.36D-02
 ErrMax= 4.06D-02  0.00D+00 EMaxC= 1.00D-01 BMatC= 7.77D-02 BMatP= 8.43D-02
 IDIUse=3 WtCom= 5.94D-01 WtEn= 4.06D-01
 Coeff-Com: -0.836D-01 0.175D+00 0.382D+00-0.707D-01 0.597D+00
 Coeff-En:   0.000D+00 0.000D+00 0.378D+00 0.000D+00 0.622D+00
 Coeff:     -0.496D-01 0.104D+00 0.381D+00-0.420D-01 0.607D+00
 Gap=     0.233 Goal=   None    Shift=    0.000
 RMSDP=2.17D-03 MaxDP=5.27D-02 DE=-1.07D+00 OVMax= 1.23D-01

 Cycle   6  Pass 0  IDiag  1:
 E= -532.737004641183     Delta-E=       -0.067854317187 Rises=F Damp=F
 DIIS: error= 4.63D-03 at cycle   6 NSaved=   6.
 NSaved= 6 IEnMin= 6 EnMin= -532.737004641183     IErMin= 6 ErrMin= 4.63D-03
 ErrMax= 4.63D-03  0.00D+00 EMaxC= 1.00D-01 BMatC= 1.24D-03 BMatP= 7.77D-02
 IDIUse=3 WtCom= 9.54D-01 WtEn= 4.63D-02
 Coeff-Com: -0.402D-01 0.441D-01 0.110D+00-0.333D-01 0.281D+00 0.639D+00
 Coeff-En:   0.000D+00 0.000D+00 0.000D+00 0.000D+00 0.000D+00 0.100D+01
 Coeff:     -0.384D-01 0.421D-01 0.105D+00-0.318D-01 0.268D+00 0.655D+00
 Gap=     0.238 Goal=   None    Shift=    0.000
 RMSDP=3.35D-04 MaxDP=9.66D-03 DE=-6.79D-02 OVMax= 1.66D-02

 Cycle   7  Pass 0  IDiag  1:
 E= -532.738092683084     Delta-E=       -0.001088041901 Rises=F Damp=F
 DIIS: error= 2.32D-03 at cycle   7 NSaved=   7.
 NSaved= 7 IEnMin= 7 EnMin= -532.738092683084     IErMin= 7 ErrMin= 2.32D-03
 ErrMax= 2.32D-03  0.00D+00 EMaxC= 1.00D-01 BMatC= 1.46D-04 BMatP= 1.24D-03
 IDIUse=3 WtCom= 9.77D-01 WtEn= 2.32D-02
 Coeff-Com: -0.304D-02 0.232D-02-0.272D-01-0.400D-02-0.211D-01 0.259D+00
 Coeff-Com:  0.794D+00
 Coeff-En:   0.000D+00 0.000D+00 0.000D+00 0.000D+00 0.000D+00 0.328D-01
 Coeff-En:   0.967D+00
 Coeff:     -0.297D-02 0.226D-02-0.266D-01-0.391D-02-0.206D-01 0.254D+00
 Coeff:      0.798D+00
 Gap=     0.242 Goal=   None    Shift=    0.000
 RMSDP=1.65D-04 MaxDP=4.13D-03 DE=-1.09D-03 OVMax= 1.13D-02

 Cycle   8  Pass 0  IDiag  1:
 E= -532.738307752270     Delta-E=       -0.000215069185 Rises=F Damp=F
 DIIS: error= 5.54D-04 at cycle   8 NSaved=   8.
 NSaved= 8 IEnMin= 8 EnMin= -532.738307752270     IErMin= 8 ErrMin= 5.54D-04
 ErrMax= 5.54D-04  0.00D+00 EMaxC= 1.00D-01 BMatC= 1.11D-05 BMatP= 1.46D-04
 IDIUse=3 WtCom= 9.94D-01 WtEn= 5.54D-03
 Coeff-Com:  0.297D-03 0.172D-02-0.264D-01 0.164D-02-0.449D-01-0.926D-02
 Coeff-Com:  0.267D+00 0.810D+00
 Coeff-En:   0.000D+00 0.000D+00 0.000D+00 0.000D+00 0.000D+00 0.000D+00
 Coeff-En:   0.000D+00 0.100D+01
 Coeff:      0.295D-03 0.171D-02-0.262D-01 0.163D-02-0.447D-01-0.921D-02
 Coeff:      0.266D+00 0.811D+00
 Gap=     0.243 Goal=   None    Shift=    0.000
 RMSDP=7.62D-05 MaxDP=2.02D-03 DE=-2.15D-04 OVMax= 5.28D-03

 Cycle   9  Pass 0  IDiag  1:
 E= -532.738339768442     Delta-E=       -0.000032016172 Rises=F Damp=F
 DIIS: error= 4.96D-04 at cycle   9 NSaved=   9.
 NSaved= 9 IEnMin= 9 EnMin= -532.738339768442     IErMin= 9 ErrMin= 4.96D-04
 ErrMax= 4.96D-04  0.00D+00 EMaxC= 1.00D-01 BMatC= 1.08D-05 BMatP= 1.11D-05
 IDIUse=3 WtCom= 9.95D-01 WtEn= 4.96D-03
 Coeff-Com: -0.338D-02 0.544D-02-0.543D-02 0.105D-02-0.922D-02-0.746D-01
 Coeff-Com: -0.999D-01 0.233D+00 0.953D+00
 Coeff-En:   0.000D+00 0.000D+00 0.000D+00 0.000D+00 0.000D+00 0.000D+00
 Coeff-En:   0.000D+00 0.000D+00 0.100D+01
 Coeff:     -0.336D-02 0.541D-02-0.541D-02 0.104D-02-0.918D-02-0.742D-01
 Coeff:     -0.994D-01 0.232D+00 0.953D+00
 Gap=     0.242 Goal=   None    Shift=    0.000
 RMSDP=5.63D-05 MaxDP=1.56D-03 DE=-3.20D-05 OVMax= 3.68D-03

 Cycle  10  Pass 0  IDiag  1:
 E= -532.738356111120     Delta-E=       -0.000016342678 Rises=F Damp=F
 DIIS: error= 3.35D-04 at cycle  10 NSaved=  10.
 NSaved=10 IEnMin=10 EnMin= -532.738356111120     IErMin=10 ErrMin= 3.35D-04
 ErrMax= 3.35D-04  0.00D+00 EMaxC= 1.00D-01 BMatC= 6.28D-06 BMatP= 1.08D-05
 IDIUse=3 WtCom= 9.97D-01 WtEn= 3.35D-03
 Coeff-Com: -0.435D-02 0.583D-02 0.117D-02-0.173D-03 0.568D-02-0.177D-01
 Coeff-Com: -0.605D-01-0.847D-01 0.210D+00 0.945D+00
 Coeff-En:   0.000D+00 0.000D+00 0.000D+00 0.000D+00 0.000D+00 0.000D+00
 Coeff-En:   0.000D+00 0.000D+00 0.000D+00 0.100D+01
 Coeff:     -0.434D-02 0.581D-02 0.116D-02-0.173D-03 0.566D-02-0.177D-01
 Coeff:     -0.603D-01-0.844D-01 0.209D+00 0.945D+00
 Gap=     0.242 Goal=   None    Shift=    0.000
 RMSDP=2.82D-05 MaxDP=8.32D-04 DE=-1.63D-05 OVMax= 1.38D-03

 Cycle  11  Pass 0  IDiag  1:
 E= -532.738362231599     Delta-E=       -0.000006120478 Rises=F Damp=F
 DIIS: error= 1.80D-04 at cycle  11 NSaved=  11.
 NSaved=11 IEnMin=11 EnMin= -532.738362231599     IErMin=11 ErrMin= 1.80D-04
 ErrMax= 1.80D-04  0.00D+00 EMaxC= 1.00D-01 BMatC= 1.97D-06 BMatP= 6.28D-06
 IDIUse=3 WtCom= 9.98D-01 WtEn= 1.80D-03
 Coeff-Com: -0.174D-02 0.201D-02-0.122D-02 0.247D-03 0.244D-03 0.106D-01
 Coeff-Com:  0.140D-01-0.606D-01-0.183D+00 0.242D+00 0.977D+00
 Coeff-En:   0.000D+00 0.000D+00 0.000D+00 0.000D+00 0.000D+00 0.000D+00
 Coeff-En:   0.000D+00 0.000D+00 0.000D+00 0.000D+00 0.100D+01
 Coeff:     -0.173D-02 0.201D-02-0.121D-02 0.246D-03 0.243D-03 0.105D-01
 Coeff:      0.140D-01-0.605D-01-0.183D+00 0.242D+00 0.977D+00
 Gap=     0.242 Goal=   None    Shift=    0.000
 RMSDP=1.57D-05 MaxDP=4.71D-04 DE=-6.12D-06 OVMax= 7.89D-04

 Cycle  12  Pass 0  IDiag  1:
 E= -532.738364318318     Delta-E=       -0.000002086720 Rises=F Damp=F
 DIIS: error= 6.82D-05 at cycle  12 NSaved=  12.
 NSaved=12 IEnMin=12 EnMin= -532.738364318318     IErMin=12 ErrMin= 6.82D-05
 ErrMax= 6.82D-05  0.00D+00 EMaxC= 1.00D-01 BMatC= 2.84D-07 BMatP= 1.97D-06
 IDIUse=1 WtCom= 1.00D+00 WtEn= 0.00D+00
 Coeff-Com: -0.450D-03 0.485D-03-0.788D-03 0.159D-03-0.684D-03 0.227D-02
 Coeff-Com:  0.679D-02-0.928D-03-0.512D-01-0.611D-01 0.179D+00 0.927D+00
 Coeff:     -0.450D-03 0.485D-03-0.788D-03 0.159D-03-0.684D-03 0.227D-02
 Coeff:      0.679D-02-0.928D-03-0.512D-01-0.611D-01 0.179D+00 0.927D+00
 Gap=     0.242 Goal=   None    Shift=    0.000
 RMSDP=5.03D-06 MaxDP=1.57D-04 DE=-2.09D-06 OVMax= 2.68D-04

 Initial convergence to 1.0D-05 achieved.  Increase integral accuracy.
 Cycle  13  Pass 1  IDiag  1:
 E= -532.738538019202     Delta-E=       -0.000173700884 Rises=F Damp=F
 DIIS: error= 1.08D-04 at cycle   1 NSaved=   1.
 NSaved= 1 IEnMin= 1 EnMin= -532.738538019202     IErMin= 1 ErrMin= 1.08D-04
 ErrMax= 1.08D-04  0.00D+00 EMaxC= 1.00D-01 BMatC= 1.76D-06 BMatP= 1.76D-06
 IDIUse=3 WtCom= 9.99D-01 WtEn= 1.08D-03
 Coeff-Com:  0.100D+01
 Coeff-En:   0.100D+01
 Coeff:      0.100D+01
 Gap=     0.242 Goal=   None    Shift=    0.000
 RMSDP=5.03D-06 MaxDP=1.57D-04 DE=-1.74D-04 OVMax= 3.94D-04

 Cycle  14  Pass 1  IDiag  1:
 E= -532.738539309258     Delta-E=       -0.000001290056 Rises=F Damp=F
 DIIS: error= 9.17D-05 at cycle   2 NSaved=   2.
 NSaved= 2 IEnMin= 2 EnMin= -532.738539309258     IErMin= 2 ErrMin= 9.17D-05
 ErrMax= 9.17D-05  0.00D+00 EMaxC= 1.00D-01 BMatC= 8.86D-07 BMatP= 1.76D-06
 IDIUse=1 WtCom= 1.00D+00 WtEn= 0.00D+00
 Coeff-Com:  0.377D+00 0.623D+00
 Coeff:      0.377D+00 0.623D+00
 Gap=     0.243 Goal=   None    Shift=    0.000
 RMSDP=1.44D-05 MaxDP=3.76D-04 DE=-1.29D-06 OVMax= 7.52D-04

 Cycle  15  Pass 1  IDiag  1:
 E= -532.738539301916     Delta-E=        0.000000007342 Rises=F Damp=F
 DIIS: error= 1.11D-04 at cycle   3 NSaved=   3.
 NSaved= 3 IEnMin= 2 EnMin= -532.738539309258     IErMin= 2 ErrMin= 9.17D-05
 ErrMax= 1.11D-04  0.00D+00 EMaxC= 1.00D-01 BMatC= 9.75D-07 BMatP= 8.86D-07
 IDIUse=3 WtCom= 9.99D-01 WtEn= 1.11D-03
 Coeff-Com:  0.543D-01 0.499D+00 0.447D+00
 Coeff-En:   0.000D+00 0.502D+00 0.498D+00
 Coeff:      0.542D-01 0.499D+00 0.447D+00
 Gap=     0.242 Goal=   None    Shift=    0.000
 RMSDP=8.96D-06 MaxDP=2.07D-04 DE= 7.34D-09 OVMax= 4.25D-04

 Cycle  16  Pass 1  IDiag  1:
 E= -532.738540155222     Delta-E=       -0.000000853306 Rises=F Damp=F
 DIIS: error= 3.16D-05 at cycle   4 NSaved=   4.
 NSaved= 4 IEnMin= 4 EnMin= -532.738540155222     IErMin= 4 ErrMin= 3.16D-05
 ErrMax= 3.16D-05  0.00D+00 EMaxC= 1.00D-01 BMatC= 6.26D-08 BMatP= 8.86D-07
 IDIUse=1 WtCom= 1.00D+00 WtEn= 0.00D+00
 Coeff-Com: -0.377D-01 0.194D+00 0.264D+00 0.579D+00
 Coeff:     -0.377D-01 0.194D+00 0.264D+00 0.579D+00
 Gap=     0.242 Goal=   None    Shift=    0.000
 RMSDP=2.19D-06 MaxDP=5.70D-05 DE=-8.53D-07 OVMax= 1.27D-04

 Cycle  17  Pass 1  IDiag  1:
 E= -532.738540220995     Delta-E=       -0.000000065773 Rises=F Damp=F
 DIIS: error= 5.56D-06 at cycle   5 NSaved=   5.
 NSaved= 5 IEnMin= 5 EnMin= -532.738540220995     IErMin= 5 ErrMin= 5.56D-06
 ErrMax= 5.56D-06  0.00D+00 EMaxC= 1.00D-01 BMatC= 3.19D-09 BMatP= 6.26D-08
 IDIUse=1 WtCom= 1.00D+00 WtEn= 0.00D+00
 Coeff-Com: -0.200D-01 0.602D-01 0.847D-01 0.258D+00 0.617D+00
 Coeff:     -0.200D-01 0.602D-01 0.847D-01 0.258D+00 0.617D+00
 Gap=     0.242 Goal=   None    Shift=    0.000
 RMSDP=6.72D-07 MaxDP=1.33D-05 DE=-6.58D-08 OVMax= 2.82D-05

 Cycle  18  Pass 1  IDiag  1:
 E= -532.738540225517     Delta-E=       -0.000000004522 Rises=F Damp=F
 DIIS: error= 3.06D-06 at cycle   6 NSaved=   6.
 NSaved= 6 IEnMin= 6 EnMin= -532.738540225517     IErMin= 6 ErrMin= 3.06D-06
 ErrMax= 3.06D-06  0.00D+00 EMaxC= 1.00D-01 BMatC= 6.98D-10 BMatP= 3.19D-09
 IDIUse=1 WtCom= 1.00D+00 WtEn= 0.00D+00
 Coeff-Com:  0.677D-02-0.432D-01-0.702D-01-0.941D-01 0.210D+00 0.991D+00
 Coeff:      0.677D-02-0.432D-01-0.702D-01-0.941D-01 0.210D+00 0.991D+00
 Gap=     0.242 Goal=   None    Shift=    0.000
 RMSDP=7.74D-07 MaxDP=1.53D-05 DE=-4.52D-09 OVMax= 3.89D-05

 Cycle  19  Pass 1  IDiag  1:
 E= -532.738540228223     Delta-E=       -0.000000002706 Rises=F Damp=F
 DIIS: error= 1.59D-06 at cycle   7 NSaved=   7.
 NSaved= 7 IEnMin= 7 EnMin= -532.738540228223     IErMin= 7 ErrMin= 1.59D-06
 ErrMax= 1.59D-06  0.00D+00 EMaxC= 1.00D-01 BMatC= 1.16D-10 BMatP= 6.98D-10
 IDIUse=1 WtCom= 1.00D+00 WtEn= 0.00D+00
 Coeff-Com:  0.292D-02-0.752D-02-0.169D-01-0.266D-01-0.116D+00 0.150D-02
 Coeff-Com:  0.116D+01
 Coeff:      0.292D-02-0.752D-02-0.169D-01-0.266D-01-0.116D+00 0.150D-02
 Coeff:      0.116D+01
 Gap=     0.242 Goal=   None    Shift=    0.000
 RMSDP=4.34D-07 MaxDP=1.01D-05 DE=-2.71D-09 OVMax= 2.24D-05

 Cycle  20  Pass 1  IDiag  1:
 E= -532.738540228819     Delta-E=       -0.000000000596 Rises=F Damp=F
 DIIS: error= 4.95D-07 at cycle   8 NSaved=   8.
 NSaved= 8 IEnMin= 8 EnMin= -532.738540228819     IErMin= 8 ErrMin= 4.95D-07
 ErrMax= 4.95D-07  0.00D+00 EMaxC= 1.00D-01 BMatC= 2.94D-11 BMatP= 1.16D-10
 IDIUse=1 WtCom= 1.00D+00 WtEn= 0.00D+00
 Coeff-Com: -0.785D-04 0.638D-02 0.722D-02 0.102D-01-0.113D+00-0.228D+00
 Coeff-Com:  0.581D+00 0.737D+00
 Coeff:     -0.785D-04 0.638D-02 0.722D-02 0.102D-01-0.113D+00-0.228D+00
 Coeff:      0.581D+00 0.737D+00
 Gap=     0.242 Goal=   None    Shift=    0.000
 RMSDP=1.77D-07 MaxDP=3.77D-06 DE=-5.96D-10 OVMax= 9.09D-06

 Cycle  21  Pass 1  IDiag  1:
 E= -532.738540228914     Delta-E=       -0.000000000095 Rises=F Damp=F
 DIIS: error= 1.27D-07 at cycle   9 NSaved=   9.
 NSaved= 9 IEnMin= 9 EnMin= -532.738540228914     IErMin= 9 ErrMin= 1.27D-07
 ErrMax= 1.27D-07  0.00D+00 EMaxC= 1.00D-01 BMatC= 3.15D-12 BMatP= 2.94D-11
 IDIUse=1 WtCom= 1.00D+00 WtEn= 0.00D+00
 Coeff-Com: -0.438D-03 0.350D-02 0.530D-02 0.794D-02-0.279D-01-0.838D-01
 Coeff-Com:  0.379D-01 0.275D+00 0.783D+00
 Coeff:     -0.438D-03 0.350D-02 0.530D-02 0.794D-02-0.279D-01-0.838D-01
 Coeff:      0.379D-01 0.275D+00 0.783D+00
 Gap=     0.242 Goal=   None    Shift=    0.000
 RMSDP=5.09D-08 MaxDP=1.03D-06 DE=-9.53D-11 OVMax= 2.51D-06

 Cycle  22  Pass 1  IDiag  1:
 E= -532.738540228923     Delta-E=       -0.000000000009 Rises=F Damp=F
 DIIS: error= 7.03D-08 at cycle  10 NSaved=  10.
 NSaved=10 IEnMin=10 EnMin= -532.738540228923     IErMin=10 ErrMin= 7.03D-08
 ErrMax= 7.03D-08  0.00D+00 EMaxC= 1.00D-01 BMatC= 5.76D-13 BMatP= 3.15D-12
 IDIUse=1 WtCom= 1.00D+00 WtEn= 0.00D+00
 Coeff-Com: -0.154D-03 0.322D-03 0.860D-03 0.159D-02 0.761D-02 0.895D-02
 Coeff-Com: -0.894D-01-0.139D-01 0.329D+00 0.755D+00
 Coeff:     -0.154D-03 0.322D-03 0.860D-03 0.159D-02 0.761D-02 0.895D-02
 Coeff:     -0.894D-01-0.139D-01 0.329D+00 0.755D+00
 Gap=     0.242 Goal=   None    Shift=    0.000
 RMSDP=1.54D-08 MaxDP=2.47D-07 DE=-9.09D-12 OVMax= 6.91D-07

 Cycle  23  Pass 1  IDiag  1:
 E= -532.738540228918     Delta-E=        0.000000000005 Rises=F Damp=F
 DIIS: error= 3.22D-08 at cycle  11 NSaved=  11.
 NSaved=11 IEnMin=10 EnMin= -532.738540228923     IErMin=11 ErrMin= 3.22D-08
 ErrMax= 3.22D-08  0.00D+00 EMaxC= 1.00D-01 BMatC= 4.87D-14 BMatP= 5.76D-13
 IDIUse=1 WtCom= 1.00D+00 WtEn= 0.00D+00
 Coeff-Com:  0.346D-05-0.245D-03-0.361D-03-0.302D-03 0.408D-02 0.112D-01
 Coeff-Com: -0.266D-01-0.282D-01-0.573D-02 0.175D+00 0.871D+00
 Coeff:      0.346D-05-0.245D-03-0.361D-03-0.302D-03 0.408D-02 0.112D-01
 Coeff:     -0.266D-01-0.282D-01-0.573D-02 0.175D+00 0.871D+00
 Gap=     0.242 Goal=   None    Shift=    0.000
 RMSDP=4.66D-09 MaxDP=7.65D-08 DE= 5.00D-12 OVMax= 2.29D-07

 SCF Done:  E(RM062X) =  -532.738540229     A.U. after   23 cycles
            NFock= 23  Conv=0.47D-08     -V/T= 2.0069
 KE= 5.291034768670D+02 PE=-2.372535451107D+03 EE= 7.400696130594D+02
 Leave Link  502 at Wed Mar 11 15:25:33 2020, MaxMem=    33554432 cpu:        69.2
 (Enter /usr/local/gaussian09d01/g09/l601.exe)
 Copying SCF densities to generalized density rwf, IOpCl= 0 IROHF=0.

 **********************************************************************

            Population analysis using the SCF density.

 **********************************************************************

 Orbital symmetries:
       Occupied  (A) (A) (A) (A) (A) (A) (A) (A) (A) (A) (A) (A)
                 (A) (A) (A) (A) (A) (A) (A) (A) (A) (A) (A) (A)
                 (A) (A) (A) (A) (A) (A) (A) (A) (A) (A) (A) (A)
                 (A) (A) (A) (A)
       Virtual   (A) (A) (A) (A) (A) (A) (A) (A) (A) (A) (A) (A)
                 (A) (A) (A) (A) (A) (A) (A) (A) (A) (A) (A) (A)
                 (A) (A) (A) (A) (A) (A) (A) (A) (A) (A) (A) (A)
                 (A) (A) (A) (A) (A) (A) (A) (A) (A) (A) (A) (A)
                 (A) (A) (A) (A) (A) (A) (A) (A) (A) (A) (A) (A)
                 (A) (A) (A) (A) (A) (A) (A) (A) (A) (A) (A) (A)
                 (A) (A) (A) (A)
 The electronic state is 1-A.
 Alpha  occ. eigenvalues --  -19.90264 -19.88015 -19.78649 -14.98573 -14.94315
 Alpha  occ. eigenvalues --  -10.89597 -10.89593 -10.79935 -10.75774 -10.63355
 Alpha  occ. eigenvalues --   -1.42449  -1.41509  -1.25528  -1.19978  -1.10845
 Alpha  occ. eigenvalues --   -1.06891  -0.99553  -0.93486  -0.90446  -0.88533
 Alpha  occ. eigenvalues --   -0.84711  -0.79530  -0.77293  -0.75486  -0.74216
 Alpha  occ. eigenvalues --   -0.73110  -0.72077  -0.69414  -0.66444  -0.64441
 Alpha  occ. eigenvalues --   -0.63528  -0.62033  -0.57429  -0.57081  -0.56556
 Alpha  occ. eigenvalues --   -0.56145  -0.53549  -0.50628  -0.46320  -0.45427
 Alpha virt. eigenvalues --   -0.21187  -0.16090  -0.12545  -0.06060  -0.04485
 Alpha virt. eigenvalues --   -0.02432  -0.01188   0.00761   0.01400   0.03957
 Alpha virt. eigenvalues --    0.05358   0.05868   0.07007   0.08013   0.09713
 Alpha virt. eigenvalues --    0.10645   0.10963   0.11207   0.13642   0.14938
 Alpha virt. eigenvalues --    0.18780   0.20470   0.24773   0.38097   0.41064
 Alpha virt. eigenvalues --    0.42783   0.45541   0.45953   0.46013   0.47202
 Alpha virt. eigenvalues --    0.48216   0.50588   0.51203   0.53302   0.55416
 Alpha virt. eigenvalues --    0.58232   0.59575   0.62451   0.63799   0.66559
 Alpha virt. eigenvalues --    0.67914   0.69870   0.72565   0.74588   0.75983
 Alpha virt. eigenvalues --    0.78099   0.79233   0.80605   0.82637   0.83675
 Alpha virt. eigenvalues --    0.85551   0.86534   0.88150   0.88320   0.91027
 Alpha virt. eigenvalues --    0.91620   0.91865   0.94146   0.95214   0.96259
 Alpha virt. eigenvalues --    1.01069   1.02185   1.06653   1.09815   1.12453
 Alpha virt. eigenvalues --    1.15005   1.16332   1.27474   1.28835   1.30536
 Alpha virt. eigenvalues --    1.38453   1.47034   1.54677   1.60370   1.71361
 Alpha virt. eigenvalues --    1.81782
          Condensed to atoms (all electrons):
               1          2          3          4          5          6
     1  C    5.207446   0.375302   0.366751   0.000000   0.366319   0.368841
     2  H    0.375302   0.460058  -0.015907   0.000000  -0.019264  -0.019475
     3  H    0.366751  -0.015907   0.503509   0.000000  -0.029581  -0.029352
     4  H    0.000000   0.000000   0.000000   0.286124   0.000000   0.000000
     5  H    0.366319  -0.019264  -0.029581   0.000000   0.549393  -0.033898
     6  H    0.368841  -0.019475  -0.029352   0.000000  -0.033898   0.548003
     7  C    0.000000   0.000000  -0.000002  -0.006359   0.000000   0.000000
     8  C   -0.000004   0.000000   0.000085   0.000052  -0.000010  -0.000006
     9  C   -0.000779   0.000016   0.002065   0.000057  -0.000104  -0.000068
    10  N    0.000000   0.000000  -0.000001   0.000021   0.000000   0.000000
    11  O   -0.001574   0.000013   0.005877   0.001993   0.000016   0.000008
    12  O   -0.005374   0.000183  -0.001487   0.000001  -0.000934  -0.000755
    13  C    0.000000   0.000000  -0.000001  -0.013819   0.000000   0.000000
    14  H    0.000000   0.000000   0.000000   0.000122   0.000000   0.000000
    15  H    0.000000   0.000000  -0.000001   0.003826   0.000000   0.000000
    16  H    0.000001   0.000000  -0.000001   0.000000   0.000000   0.000000
    17  H    0.000000   0.000000   0.000000  -0.000038   0.000000   0.000000
    18  H   -0.000001   0.000000   0.000000   0.000000   0.000000   0.000000
    19  H    0.031930  -0.001176   0.002226   0.000000   0.006280   0.005447
    20  N    0.000000   0.000000   0.000000   0.005556   0.000000   0.000000
    21  O    0.000000   0.000000   0.000000   0.255784   0.000000   0.000000
    22  H    0.000000   0.000000   0.000000   0.000000   0.000000   0.000000
    23  H    0.000000   0.000000   0.000000  -0.000043   0.000000   0.000000
               7          8          9         10         11         12
     1  C    0.000000  -0.000004  -0.000779   0.000000  -0.001574  -0.005374
     2  H    0.000000   0.000000   0.000016   0.000000   0.000013   0.000183
     3  H   -0.000002   0.000085   0.002065  -0.000001   0.005877  -0.001487
     4  H   -0.006359   0.000052   0.000057   0.000021   0.001993   0.000001
     5  H    0.000000  -0.000010  -0.000104   0.000000   0.000016  -0.000934
     6  H    0.000000  -0.000006  -0.000068   0.000000   0.000008  -0.000755
     7  C    5.413569   0.231361  -0.048889  -0.074483   0.003477   0.004321
     8  C    0.231361   5.464147   0.154039   0.192030  -0.036452  -0.092882
     9  C   -0.048889   0.154039   5.057424  -0.053304   0.268600   0.189687
    10  N   -0.074483   0.192030  -0.053304   7.106027   0.000456  -0.001223
    11  O    0.003477  -0.036452   0.268600   0.000456   8.169789  -0.018514
    12  O    0.004321  -0.092882   0.189687  -0.001223  -0.018514   8.269144
    13  C    0.275427  -0.017635  -0.001998  -0.005705   0.017048  -0.000422
    14  H    0.369296  -0.030930   0.006368  -0.001368   0.000335  -0.000056
    15  H    0.362925  -0.029144   0.000986   0.003647   0.006953   0.000118
    16  H   -0.040231   0.379274  -0.025462  -0.033667   0.000224  -0.000667
    17  H   -0.009294  -0.010833  -0.000804   0.085787  -0.000017   0.000042
    18  H    0.004887  -0.036617  -0.009122   0.322392   0.000056   0.011614
    19  H   -0.000124   0.004053  -0.015758  -0.000019  -0.000051   0.226536
    20  N   -0.101713   0.004250  -0.001971  -0.073740  -0.002840   0.000028
    21  O   -0.063449   0.002825  -0.000720  -0.000154  -0.003917   0.000000
    22  H   -0.001272  -0.027378   0.004454   0.323008  -0.000009   0.000033
    23  H    0.003761  -0.000227  -0.000076   0.001383   0.000032   0.000003
              13         14         15         16         17         18
     1  C    0.000000   0.000000   0.000000   0.000001   0.000000  -0.000001
     2  H    0.000000   0.000000   0.000000   0.000000   0.000000   0.000000
     3  H   -0.000001   0.000000  -0.000001  -0.000001   0.000000   0.000000
     4  H   -0.013819   0.000122   0.003826   0.000000  -0.000038   0.000000
     5  H    0.000000   0.000000   0.000000   0.000000   0.000000   0.000000
     6  H    0.000000   0.000000   0.000000   0.000000   0.000000   0.000000
     7  C    0.275427   0.369296   0.362925  -0.040231  -0.009294   0.004887
     8  C   -0.017635  -0.030930  -0.029144   0.379274  -0.010833  -0.036617
     9  C   -0.001998   0.006368   0.000986  -0.025462  -0.000804  -0.009122
    10  N   -0.005705  -0.001368   0.003647  -0.033667   0.085787   0.322392
    11  O    0.017048   0.000335   0.006953   0.000224  -0.000017   0.000056
    12  O   -0.000422  -0.000056   0.000118  -0.000667   0.000042   0.011614
    13  C    4.605898  -0.036981  -0.028656   0.003727  -0.020004   0.000158
    14  H   -0.036981   0.455440  -0.014554  -0.003467  -0.000288  -0.000036
    15  H   -0.028656  -0.014554   0.449457  -0.000942   0.000361  -0.000096
    16  H    0.003727  -0.003467  -0.000942   0.443110   0.000849   0.001325
    17  H   -0.020004  -0.000288   0.000361   0.000849   0.251463  -0.000443
    18  H    0.000158  -0.000036  -0.000096   0.001325  -0.000443   0.344681
    19  H   -0.000004   0.000002  -0.000002  -0.000179  -0.000013  -0.000207
    20  N    0.300743  -0.001531   0.004361  -0.000278   0.246622   0.000299
    21  O    0.324097   0.000819  -0.002815  -0.000067   0.001275   0.000002
    22  H   -0.000190   0.001699  -0.000069  -0.003428  -0.001133  -0.021297
    23  H   -0.017970  -0.000128  -0.000064   0.000010  -0.002825  -0.000011
              19         20         21         22         23
     1  C    0.031930   0.000000   0.000000   0.000000   0.000000
     2  H   -0.001176   0.000000   0.000000   0.000000   0.000000
     3  H    0.002226   0.000000   0.000000   0.000000   0.000000
     4  H    0.000000   0.005556   0.255784   0.000000  -0.000043
     5  H    0.006280   0.000000   0.000000   0.000000   0.000000
     6  H    0.005447   0.000000   0.000000   0.000000   0.000000
     7  C   -0.000124  -0.101713  -0.063449  -0.001272   0.003761
     8  C    0.004053   0.004250   0.002825  -0.027378  -0.000227
     9  C   -0.015758  -0.001971  -0.000720   0.004454  -0.000076
    10  N   -0.000019  -0.073740  -0.000154   0.323008   0.001383
    11  O   -0.000051  -0.002840  -0.003917  -0.000009   0.000032
    12  O    0.226536   0.000028   0.000000   0.000033   0.000003
    13  C   -0.000004   0.300743   0.324097  -0.000190  -0.017970
    14  H    0.000002  -0.001531   0.000819   0.001699  -0.000128
    15  H   -0.000002   0.004361  -0.002815  -0.000069  -0.000064
    16  H   -0.000179  -0.000278  -0.000067  -0.003428   0.000010
    17  H   -0.000013   0.246622   0.001275  -0.001133  -0.002825
    18  H   -0.000207   0.000299   0.000002  -0.021297  -0.000011
    19  H    0.245969   0.000009   0.000000   0.000010  -0.000001
    20  N    0.000009   7.115308  -0.109223   0.000819   0.306112
    21  O    0.000000  -0.109223   8.138965   0.000002  -0.000640
    22  H    0.000010   0.000819   0.000002   0.358351  -0.000019
    23  H   -0.000001   0.306112  -0.000640  -0.000019   0.290569
 Mulliken charges:
               1
     1  C   -0.708858
     2  H    0.220249
     3  H    0.195819
     4  H    0.466723
     5  H    0.161783
     6  H    0.161254
     7  C   -0.323207
     8  C   -0.149997
     9  C    0.475360
    10  N   -0.791085
    11  O   -0.411505
    12  O   -0.579396
    13  C    0.616288
    14  H    0.255258
    15  H    0.243709
    16  H    0.279866
    17  H    0.459293
    18  H    0.382415
    19  H    0.495074
    20  N   -0.692811
    21  O   -0.542785
    22  H    0.366419
    23  H    0.420135
 Sum of Mulliken charges =   1.00000
 Mulliken charges with hydrogens summed into heavy atoms:
               1
     1  C    0.030246
     7  C    0.175759
     8  C    0.129869
     9  C    0.475360
    10  N   -0.042251
    11  O   -0.411505
    12  O   -0.084322
    13  C    0.616288
    20  N    0.186618
    21  O   -0.076062
 Electronic spatial extent (au):  <R**2>=           2041.3852
 Charge=              1.0000 electrons
 Dipole moment (field-independent basis, Debye):
    X=              4.2904    Y=              4.1930    Z=              0.0298  Tot=              5.9992
 Quadrupole moment (field-independent basis, Debye-Ang):
   XX=            -31.8480   YY=            -48.6978   ZZ=            -48.7222
   XY=             -2.6591   XZ=             -4.0559   YZ=              0.1604
 Traceless Quadrupole moment (field-independent basis, Debye-Ang):
   XX=             11.2413   YY=             -5.6085   ZZ=             -5.6329
   XY=             -2.6591   XZ=             -4.0559   YZ=              0.1604
 Octapole moment (field-independent basis, Debye-Ang**2):
  XXX=            -26.6612  YYY=             20.4482  ZZZ=             14.1769  XYY=             25.5794
  XXY=            -13.5807  XXZ=              0.8314  XZZ=             23.4751  YZZ=             -2.3696
  YYZ=             -6.1658  XYZ=              7.1304
 Hexadecapole moment (field-independent basis, Debye-Ang**3):
 XXXX=          -1408.4825 YYYY=           -463.7658 ZZZZ=           -199.8440 XXXY=             22.9893
 XXXZ=            -35.2967 YYYX=            -16.8909 YYYZ=             33.9976 ZZZX=             31.0071
 ZZZY=             -8.5608 XXYY=           -336.4604 XXZZ=           -291.9267 YYZZ=           -123.3215
 XXYZ=              8.4408 YYXZ=            -27.5920 ZZXY=            -25.6281
 N-N= 5.706238209518D+02 E-N=-2.372535450347D+03  KE= 5.291034768670D+02
 No NMR shielding tensors so no spin-rotation constants.
 Leave Link  601 at Wed Mar 11 15:25:33 2020, MaxMem=    33554432 cpu:         0.1
 (Enter /usr/local/gaussian09d01/g09/l9999.exe)
 1\1\GINC-KARURA\SP\RM062X\6-31G\C5H13N2O3(1+)\RTAKE\11-Mar-2020\0\\#p 
 M062X/6-31G\\chk calc\\1,1\C,0,3.824482709,-1.14219544,1.17225369\H,0,
 4.799113079,-1.62961423,1.173808707\H,0,3.053614027,-1.916312598,1.160
 804944\H,0,-2.540416453,-2.844981592,-1.014302773\H,0,3.75960642,-0.53
 291794,2.07824618\H,0,3.765323683,-0.52154146,0.273951194\C,0,-2.40154
 2122,-0.705499021,0.492562549\C,0,-1.33365594,0.193207044,1.141270536\
 C,0,0.021967089,-0.47033751,0.950186539\N,0,-1.303304814,1.529148773,0
 .515945207\O,0,0.189796002,-2.208999694,0.295639784\O,0,1.024922388,0.
 353392554,1.298656\C,0,-2.121889445,-0.918337302,-0.967112723\H,0,-3.3
 9229932,-0.247402335,0.596496855\H,0,-2.419176945,-1.669900059,1.00443
 6439\H,0,-1.526304416,0.239474424,2.221387894\H,0,-1.503902114,0.96075
 0702,-1.170400229\H,0,-0.410560182,1.997532273,0.666150752\H,0,1.92440
 2159,-0.039925506,1.230818645\N,0,-1.700457396,0.069239192,-1.69491976
 1\O,0,-2.336854815,-2.071648312,-1.575178364\H,0,-2.071900591,2.128556
 543,0.807834339\H,0,-1.514408501,-0.054510917,-2.685235696\\Version=ES
 64L-G09RevD.01\State=1-A\HF=-532.7385402\RMSD=4.662e-09\Dipole=-1.8189
 062,1.5030043,0.0581676\Quadrupole=7.911574,-4.1731015,-3.7384724,2.72
 83715,3.1354448,1.0660505\PG=C01 [X(C5H13N2O3)]\\@


 A politician is a person who can make waves and then
 make you think he's the only one who can save the ship.
 -- Ivern Ball
 Job cpu time:       0 days  0 hours  1 minutes 10.6 seconds.
 File lengths (MBytes):  RWF=      7 Int=      0 D2E=      0 Chk=      2 Scr=      1
 Normal termination of Gaussian 09 at Wed Mar 11 15:25:33 2020.
