 Entering Gaussian System, Link 0=g09
 Input=./h4_o21_09.gjf
 Output=./h4_o21_09.log
 Initial command:
 /usr/local/gaussian09d01/g09/l1.exe "/scr/Gau-22503.inp" -scrdir="/scr/"
 Entering Link 1 = /usr/local/gaussian09d01/g09/l1.exe PID=     22504.
  
 Copyright (c) 1988,1990,1992,1993,1995,1998,2003,2009,2013,
            Gaussian, Inc.  All Rights Reserved.
  
 This is part of the Gaussian(R) 09 program.  It is based on
 the Gaussian(R) 03 system (copyright 2003, Gaussian, Inc.),
 the Gaussian(R) 98 system (copyright 1998, Gaussian, Inc.),
 the Gaussian(R) 94 system (copyright 1995, Gaussian, Inc.),
 the Gaussian 92(TM) system (copyright 1992, Gaussian, Inc.),
 the Gaussian 90(TM) system (copyright 1990, Gaussian, Inc.),
 the Gaussian 88(TM) system (copyright 1988, Gaussian, Inc.),
 the Gaussian 86(TM) system (copyright 1986, Carnegie Mellon
 University), and the Gaussian 82(TM) system (copyright 1983,
 Carnegie Mellon University). Gaussian is a federally registered
 trademark of Gaussian, Inc.
  
 This software contains proprietary and confidential information,
 including trade secrets, belonging to Gaussian, Inc.
  
 This software is provided under written license and may be
 used, copied, transmitted, or stored only in accord with that
 written license.
  
 The following legend is applicable only to US Government
 contracts under FAR:
  
                    RESTRICTED RIGHTS LEGEND
  
 Use, reproduction and disclosure by the US Government is
 subject to restrictions as set forth in subparagraphs (a)
 and (c) of the Commercial Computer Software - Restricted
 Rights clause in FAR 52.227-19.
  
 Gaussian, Inc.
 340 Quinnipiac St., Bldg. 40, Wallingford CT 06492
  
  
 ---------------------------------------------------------------
 Warning -- This program may not be used in any manner that
 competes with the business of Gaussian, Inc. or will provide
 assistance to any competitor of Gaussian, Inc.  The licensee
 of this program is prohibited from giving any competitor of
 Gaussian, Inc. access to this program.  By using this program,
 the user acknowledges that Gaussian, Inc. is engaged in the
 business of creating and licensing software in the field of
 computational chemistry and represents and warrants to the
 licensee that it is not a competitor of Gaussian, Inc. and that
 it will not use this program in any manner prohibited above.
 ---------------------------------------------------------------
  

 Cite this work as:
 Gaussian 09, Revision D.01,
 M. J. Frisch, G. W. Trucks, H. B. Schlegel, G. E. Scuseria, 
 M. A. Robb, J. R. Cheeseman, G. Scalmani, V. Barone, B. Mennucci, 
 G. A. Petersson, H. Nakatsuji, M. Caricato, X. Li, H. P. Hratchian, 
 A. F. Izmaylov, J. Bloino, G. Zheng, J. L. Sonnenberg, M. Hada, 
 M. Ehara, K. Toyota, R. Fukuda, J. Hasegawa, M. Ishida, T. Nakajima, 
 Y. Honda, O. Kitao, H. Nakai, T. Vreven, J. A. Montgomery, Jr., 
 J. E. Peralta, F. Ogliaro, M. Bearpark, J. J. Heyd, E. Brothers, 
 K. N. Kudin, V. N. Staroverov, T. Keith, R. Kobayashi, J. Normand, 
 K. Raghavachari, A. Rendell, J. C. Burant, S. S. Iyengar, J. Tomasi, 
 M. Cossi, N. Rega, J. M. Millam, M. Klene, J. E. Knox, J. B. Cross, 
 V. Bakken, C. Adamo, J. Jaramillo, R. Gomperts, R. E. Stratmann, 
 O. Yazyev, A. J. Austin, R. Cammi, C. Pomelli, J. W. Ochterski, 
 R. L. Martin, K. Morokuma, V. G. Zakrzewski, G. A. Voth, 
 P. Salvador, J. J. Dannenberg, S. Dapprich, A. D. Daniels, 
 O. Farkas, J. B. Foresman, J. V. Ortiz, J. Cioslowski, 
 and D. J. Fox, Gaussian, Inc., Wallingford CT, 2013.
 
 ******************************************
 Gaussian 09:  ES64L-G09RevD.01 24-Apr-2013
                12-Mar-2020 
 ******************************************
 --------------
 #p M062X/6-31G
 --------------
 1/38=1/1;
 2/12=2,17=6,18=5,40=1/2;
 3/5=1,6=6,11=2,16=1,25=1,30=1,74=-55/1,2,3;
 4//1;
 5/5=2,38=5/2;
 6/7=2,8=2,9=2,10=2,28=1/1;
 99/5=1,9=1/99;
 Leave Link    1 at Thu Mar 12 19:27:10 2020, MaxMem=           0 cpu:         0.0
 (Enter /usr/local/gaussian09d01/g09/l101.exe)
 --------
 chk calc
 --------
 Symbolic Z-matrix:
 Charge =  1 Multiplicity = 1
 C                     3.82448  -1.1422    1.17225 
 H                     4.79911  -1.62961   1.17381 
 H                     3.05361  -1.91631   1.1608 
 H                    -2.52006  -2.76765  -1.07039 
 H                     3.75961  -0.53292   2.07825 
 H                     3.76532  -0.52154   0.27395 
 C                    -2.40154  -0.7055    0.49256 
 C                    -1.33366   0.19321   1.14127 
 C                     0.02197  -0.47034   0.95019 
 N                    -1.3033    1.52915   0.51595 
 O                     0.15593  -1.61146   0.51692 
 O                     1.02492   0.35339   1.29866 
 C                    -2.12189  -0.91834  -0.96711 
 H                    -3.3923   -0.2474    0.5965 
 H                    -2.41918  -1.6699    1.00444 
 H                    -1.5263    0.23947   2.22139 
 H                    -1.5039    0.96075  -1.1704 
 H                    -0.41056   1.99753   0.66615 
 H                     1.9244   -0.03993   1.23082 
 N                    -1.70046   0.06924  -1.69492 
 O                    -2.33685  -2.07165  -1.57518 
 H                    -2.0719    2.12856   0.80783 
 H                    -1.51441  -0.05451  -2.68524 
 
 NAtoms=     23 NQM=       23 NQMF=       0 NMMI=      0 NMMIF=      0
                NMic=       0 NMicF=      0.
                    Isotopes and Nuclear Properties:
 (Nuclear quadrupole moments (NQMom) in fm**2, nuclear magnetic moments (NMagM)
  in nuclear magnetons)

  Atom         1           2           3           4           5           6           7           8           9          10
 IAtWgt=          12           1           1           1           1           1          12          12          12          14
 AtmWgt=  12.0000000   1.0078250   1.0078250   1.0078250   1.0078250   1.0078250  12.0000000  12.0000000  12.0000000  14.0030740
 NucSpn=           0           1           1           1           1           1           0           0           0           2
 AtZEff=   0.0000000   0.0000000   0.0000000   0.0000000   0.0000000   0.0000000   0.0000000   0.0000000   0.0000000   0.0000000
 NQMom=    0.0000000   0.0000000   0.0000000   0.0000000   0.0000000   0.0000000   0.0000000   0.0000000   0.0000000   2.0440000
 NMagM=    0.0000000   2.7928460   2.7928460   2.7928460   2.7928460   2.7928460   0.0000000   0.0000000   0.0000000   0.4037610
 AtZNuc=   6.0000000   1.0000000   1.0000000   1.0000000   1.0000000   1.0000000   6.0000000   6.0000000   6.0000000   7.0000000

  Atom        11          12          13          14          15          16          17          18          19          20
 IAtWgt=          16          16          12           1           1           1           1           1           1          14
 AtmWgt=  15.9949146  15.9949146  12.0000000   1.0078250   1.0078250   1.0078250   1.0078250   1.0078250   1.0078250  14.0030740
 NucSpn=           0           0           0           1           1           1           1           1           1           2
 AtZEff=   0.0000000   0.0000000   0.0000000   0.0000000   0.0000000   0.0000000   0.0000000   0.0000000   0.0000000   0.0000000
 NQMom=    0.0000000   0.0000000   0.0000000   0.0000000   0.0000000   0.0000000   0.0000000   0.0000000   0.0000000   2.0440000
 NMagM=    0.0000000   0.0000000   0.0000000   2.7928460   2.7928460   2.7928460   2.7928460   2.7928460   2.7928460   0.4037610
 AtZNuc=   8.0000000   8.0000000   6.0000000   1.0000000   1.0000000   1.0000000   1.0000000   1.0000000   1.0000000   7.0000000

  Atom        21          22          23
 IAtWgt=          16           1           1
 AtmWgt=  15.9949146   1.0078250   1.0078250
 NucSpn=           0           1           1
 AtZEff=   0.0000000   0.0000000   0.0000000
 NQMom=    0.0000000   0.0000000   0.0000000
 NMagM=    0.0000000   2.7928460   2.7928460
 AtZNuc=   8.0000000   1.0000000   1.0000000
 Leave Link  101 at Thu Mar 12 19:27:10 2020, MaxMem=    33554432 cpu:         0.0
 (Enter /usr/local/gaussian09d01/g09/l202.exe)
                          Input orientation:                          
 ---------------------------------------------------------------------
 Center     Atomic      Atomic             Coordinates (Angstroms)
 Number     Number       Type             X           Y           Z
 ---------------------------------------------------------------------
      1          6           0        3.824483   -1.142195    1.172254
      2          1           0        4.799113   -1.629614    1.173809
      3          1           0        3.053614   -1.916313    1.160805
      4          1           0       -2.520060   -2.767647   -1.070391
      5          1           0        3.759606   -0.532918    2.078246
      6          1           0        3.765324   -0.521541    0.273951
      7          6           0       -2.401542   -0.705499    0.492563
      8          6           0       -1.333656    0.193207    1.141271
      9          6           0        0.021967   -0.470338    0.950187
     10          7           0       -1.303305    1.529149    0.515945
     11          8           0        0.155929   -1.611463    0.516920
     12          8           0        1.024922    0.353393    1.298656
     13          6           0       -2.121889   -0.918337   -0.967113
     14          1           0       -3.392299   -0.247402    0.596497
     15          1           0       -2.419177   -1.669900    1.004436
     16          1           0       -1.526304    0.239474    2.221388
     17          1           0       -1.503902    0.960751   -1.170400
     18          1           0       -0.410560    1.997532    0.666151
     19          1           0        1.924402   -0.039926    1.230819
     20          7           0       -1.700457    0.069239   -1.694920
     21          8           0       -2.336855   -2.071648   -1.575178
     22          1           0       -2.071901    2.128557    0.807834
     23          1           0       -1.514409   -0.054511   -2.685236
 ---------------------------------------------------------------------
                    Distance matrix (angstroms):
                    1          2          3          4          5
     1  C    0.000000
     2  H    1.089717   0.000000
     3  H    1.092532   1.768935   0.000000
     4  H    6.922772   7.739628   6.063732   0.000000
     5  H    1.093732   1.761058   1.803858   7.371712   0.000000
     6  H    1.093462   1.762467   1.799563   6.808693   1.804340
     7  C    6.278222   7.291606   5.627730   2.590237   6.364270
     8  C    5.328288   6.398015   4.868120   3.881451   5.229388
     9  C    3.867794   4.920879   3.365425   3.977721   3.904662
    10  N    5.819023   6.902903   5.591940   4.739136   5.685594
    11  O    3.756056   4.689455   2.983974   3.319222   4.072774
    12  O    3.176523   4.265257   3.047319   5.283954   2.978557
    13  C    6.323476   7.279405   5.684173   1.894506   6.634362
    14  H    7.294799   8.327247   6.682328   3.144988   7.309368
    15  H    6.268167   7.220389   5.480567   2.349497   6.373630
    16  H    5.624999   6.678459   5.171838   4.567947   5.343962
    17  H    6.188869   7.206477   5.872220   3.865686   6.363118
    18  H    5.296189   6.368250   5.250083   5.492950   5.078138
    19  H    2.197438   3.285472   2.191084   5.699936   2.080661
    20  N    6.341389   7.304801   5.890567   3.018229   6.664208
    21  O    6.809871   7.659919   6.047056   0.879084   7.272004
    22  H    6.752626   7.840192   6.538842   5.263211   6.534820
    23  H    6.675855   7.565298   6.255011   3.313633   7.122841
                    6          7          8          9         10
     6  H    0.000000
     7  C    6.173481   0.000000
     8  C    5.221370   1.539115   0.000000
     9  C    3.804292   2.477522   1.521354   0.000000
    10  N    5.473106   2.490045   1.475362   2.437797   0.000000
    11  O    3.778186   2.713305   2.421882   1.227938   3.463063
    12  O    3.053740   3.675826   2.369245   1.343831   2.723175
    13  C    6.029674   1.501385   2.510403   2.910818   2.976530
    14  H    7.170129   1.096474   2.174610   3.439769   2.743450
    15  H    6.332486   1.091969   2.160613   2.720492   3.423114
    16  H    5.689726   2.155888   1.098138   2.125307   2.149773
    17  H    5.661103   2.519443   2.441706   2.978788   1.790831
    18  H    4.892602   3.361625   2.081690   2.521535   1.019283
    19  H    2.129916   4.438671   3.267616   1.970601   3.659389
    20  N    5.839541   2.424215   2.862497   3.202261   2.678990
    21  O    6.561912   2.479133   3.676285   3.808636   4.290310
    22  H    6.432825   2.870528   2.098038   3.340478   1.017462
    23  H    6.070459   3.362914   3.838774   3.968584   3.577723
                   11         12         13         14         15
    11  O    0.000000
    12  O    2.286245   0.000000
    13  C    2.805572   4.080861   0.000000
    14  H    3.802225   4.512852   2.123434   0.000000
    15  H    2.621499   4.005259   2.130782   1.771124   0.000000
    16  H    3.026729   2.715358   3.444094   2.521757   2.433907
    17  H    3.495479   3.586095   1.988519   2.854401   3.533832
    18  H    3.656231   2.272415   3.754796   3.733008   4.195121
    19  H    2.471210   0.984055   4.687748   5.358426   4.644862
    20  N    3.341132   4.058317   1.297157   2.865865   3.290545
    21  O    3.286734   5.043936   1.321393   3.026220   2.612009
    22  H    4.362981   3.603113   3.526542   2.726407   3.819362
    23  H    3.932929   4.741938   2.016724   3.785954   4.128168
                   16         17         18         19         20
    16  H    0.000000
    17  H    3.467704   0.000000
    18  H    2.598926   2.375549   0.000000
    19  H    3.600926   4.303542   3.149942   0.000000
    20  N    3.923872   1.052876   3.310106   4.659557   0.000000
    21  O    4.517986   3.170662   5.029155   5.491796   2.236680
    22  H    2.421661   2.366391   1.672511   4.566362   3.262290
    23  H    4.915437   1.823621   4.081808   5.211632   1.015211
                   21         22         23
    21  O    0.000000
    22  H    4.836390   0.000000
    23  H    2.444890   4.156696   0.000000
 Stoichiometry    C5H13N2O3(1+)
 Framework group  C1[X(C5H13N2O3)]
 Deg. of freedom    63
 Full point group                 C1      NOp   1
 Largest Abelian subgroup         C1      NOp   1
 Largest concise Abelian subgroup C1      NOp   1
                         Standard orientation:                         
 ---------------------------------------------------------------------
 Center     Atomic      Atomic             Coordinates (Angstroms)
 Number     Number       Type             X           Y           Z
 ---------------------------------------------------------------------
      1          6           0       -4.369003   -0.943449    0.319513
      2          1           0       -5.273318   -1.546630    0.396129
      3          1           0       -3.655310   -1.473996   -0.315143
      4          1           0        2.344042   -2.206813   -0.804638
      5          1           0       -4.650581    0.017725   -0.119929
      6          1           0       -3.969851   -0.814170    1.329278
      7          6           0        1.649900    0.282594   -0.978833
      8          6           0        0.419805    1.162221   -0.692477
      9          6           0       -0.764478    0.245674   -0.424275
     10          7           0        0.635747    2.020526    0.487936
     11          8           0       -0.729018   -0.968120   -0.606695
     12          8           0       -1.820724    0.932724    0.042831
     13          6           0        1.945195   -0.633899    0.173122
     14          1           0        2.528887    0.912586   -1.159792
     15          1           0        1.467074   -0.309637   -1.877850
     16          1           0        0.187560    1.741536   -1.596006
     17          1           0        1.459731    0.780798    1.483528
     18          1           0       -0.244858    2.328515    0.898565
     19          1           0       -2.628709    0.392653    0.197263
     20          7           0        1.836752   -0.197796    1.389950
     21          8           0        2.369776   -1.874381    0.008760
     22          1           0        1.238464    2.818724    0.301283
     23          1           0        2.040596   -0.801042    2.180642
 ---------------------------------------------------------------------
 Rotational constants (GHZ):      1.8044955      0.7176857      0.6062807
 Leave Link  202 at Thu Mar 12 19:27:10 2020, MaxMem=    33554432 cpu:         0.0
 (Enter /usr/local/gaussian09d01/g09/l301.exe)
 Standard basis: 6-31G (6D, 7F)
 Ernie: Thresh=  0.10000D-02 Tol=  0.10000D-05 Strict=F.
 There are   116 symmetry adapted cartesian basis functions of A   symmetry.
 There are   116 symmetry adapted basis functions of A   symmetry.
   116 basis functions,   272 primitive gaussians,   116 cartesian basis functions
    40 alpha electrons       40 beta electrons
       nuclear repulsion energy       587.2301647103 Hartrees.
 IExCor= 4336 DFT=T Ex+Corr=M062X ExCW=0 ScaHFX=  0.540000
 ScaDFX=  1.000000  1.000000  1.000000  1.000000 ScalE2=  1.000000  1.000000
 IRadAn=      0 IRanWt=     -1 IRanGd=            0 ICorTp=0 IEmpDi=  4
 NAtoms=   23 NActive=   23 NUniq=   23 SFac= 1.00D+00 NAtFMM=   60 NAOKFM=F Big=F
 Integral buffers will be    131072 words long.
 Raffenetti 2 integral format.
 Two-electron integral symmetry is turned on.
 Leave Link  301 at Thu Mar 12 19:27:10 2020, MaxMem=    33554432 cpu:         0.0
 (Enter /usr/local/gaussian09d01/g09/l302.exe)
 NPDir=0 NMtPBC=     1 NCelOv=     1 NCel=       1 NClECP=     1 NCelD=      1
         NCelK=      1 NCelE2=     1 NClLst=     1 CellRange=     0.0.
 One-electron integrals computed using PRISM.
 NBasis=   116 RedAO= T EigKep=  3.51D-03  NBF=   116
 NBsUse=   116 1.00D-06 EigRej= -1.00D+00 NBFU=   116
 Precomputing XC quadrature grid using
 IXCGrd= 4 IRadAn=           0 IRanWt=          -1 IRanGd=           0 AccXCQ= 0.00D+00.
 Generated NRdTot=       0 NPtTot=           0 NUsed=           0 NTot=          32
 NSgBfM=   115   115   115   115   115 MxSgAt=    23 MxSgA2=    23.
 Leave Link  302 at Thu Mar 12 19:27:11 2020, MaxMem=    33554432 cpu:         0.3
 (Enter /usr/local/gaussian09d01/g09/l303.exe)
 DipDrv:  MaxL=1.
 Leave Link  303 at Thu Mar 12 19:27:11 2020, MaxMem=    33554432 cpu:         0.0
 (Enter /usr/local/gaussian09d01/g09/l401.exe)
 ExpMin= 1.61D-01 ExpMax= 5.48D+03 ExpMxC= 8.25D+02 IAcc=1 IRadAn=         1 AccDes= 0.00D+00
 Harris functional with IExCor= 1009 and IRadAn=       1 diagonalized for initial guess.
 HarFok:  IExCor= 1009 AccDes= 0.00D+00 IRadAn=         1 IDoV= 1 UseB2=F ITyADJ=14
 ICtDFT=  3500011 ScaDFX=  1.000000  1.000000  1.000000  1.000000
 FoFCou: FMM=F IPFlag=           0 FMFlag=      100000 FMFlg1=           0
         NFxFlg=           0 DoJE=T BraDBF=F KetDBF=T FulRan=T
         wScrn=  0.000000 ICntrl=     500 IOpCl=  0 I1Cent=   200000004 NGrid=           0
         NMat0=    1 NMatS0=      1 NMatT0=    0 NMatD0=    1 NMtDS0=    0 NMtDT0=    0
 Petite list used in FoFCou.
 Harris En= -532.730809385499    
 JPrj=0 DoOrth=F DoCkMO=F.
 Leave Link  401 at Thu Mar 12 19:27:12 2020, MaxMem=    33554432 cpu:         0.9
 (Enter /usr/local/gaussian09d01/g09/l502.exe)
 Closed shell SCF:
 Using DIIS extrapolation, IDIIS=  1040.
 Integral symmetry usage will be decided dynamically.
 Keep R1 ints in memory in canonical form, NReq=24030401.
 IVT=       60528 IEndB=       60528 NGot=    33554432 MDV=    10465614
 LenX=    10465614 LenY=    10451717
 Requested convergence on RMS density matrix=1.00D-08 within 128 cycles.
 Requested convergence on MAX density matrix=1.00D-06.
 Requested convergence on             energy=1.00D-06.
 No special actions if energy rises.
 FoFCou: FMM=F IPFlag=           0 FMFlag=           0 FMFlg1=           0
         NFxFlg=           0 DoJE=F BraDBF=F KetDBF=F FulRan=T
         wScrn=  0.000000 ICntrl=     600 IOpCl=  0 I1Cent=           0 NGrid=           0
         NMat0=    1 NMatS0=   6786 NMatT0=    0 NMatD0=    1 NMtDS0=    0 NMtDT0=    0
 Symmetry not used in FoFCou.
 Integral accuracy reduced to 1.0D-05 until final iterations.

 Cycle   1  Pass 0  IDiag  1:
 E= -532.638527702421    
 DIIS: error= 5.26D-02 at cycle   1 NSaved=   1.
 NSaved= 1 IEnMin= 1 EnMin= -532.638527702421     IErMin= 1 ErrMin= 5.26D-02
 ErrMax= 5.26D-02  0.00D+00 EMaxC= 1.00D-01 BMatC= 3.23D-01 BMatP= 3.23D-01
 IDIUse=3 WtCom= 4.74D-01 WtEn= 5.26D-01
 Coeff-Com:  0.100D+01
 Coeff-En:   0.100D+01
 Coeff:      0.100D+01
 Gap=     0.256 Goal=   None    Shift=    0.000
 GapD=    0.256 DampG=1.000 DampE=0.500 DampFc=0.5000 IDamp=-1.
 Damping current iteration by 5.00D-01
 RMSDP=8.48D-03 MaxDP=1.64D-01              OVMax= 1.77D-01

 Cycle   2  Pass 0  IDiag  1:
 E= -532.766904014381     Delta-E=       -0.128376311960 Rises=F Damp=T
 DIIS: error= 1.03D-02 at cycle   2 NSaved=   2.
 NSaved= 2 IEnMin= 2 EnMin= -532.766904014381     IErMin= 2 ErrMin= 1.03D-02
 ErrMax= 1.03D-02  0.00D+00 EMaxC= 1.00D-01 BMatC= 1.90D-02 BMatP= 3.23D-01
 IDIUse=3 WtCom= 8.97D-01 WtEn= 1.03D-01
 Coeff-Com:  0.325D-01 0.968D+00
 Coeff-En:   0.379D-01 0.962D+00
 Coeff:      0.331D-01 0.967D+00
 Gap=     0.360 Goal=   None    Shift=    0.000
 RMSDP=2.12D-03 MaxDP=3.61D-02 DE=-1.28D-01 OVMax= 1.10D-01

 Cycle   3  Pass 0  IDiag  1:
 E= -532.899921301711     Delta-E=       -0.133017287330 Rises=F Damp=F
 DIIS: error= 1.19D-02 at cycle   3 NSaved=   3.
 NSaved= 3 IEnMin= 3 EnMin= -532.899921301711     IErMin= 2 ErrMin= 1.03D-02
 ErrMax= 1.19D-02  0.00D+00 EMaxC= 1.00D-01 BMatC= 1.53D-02 BMatP= 1.90D-02
 IDIUse=3 WtCom= 8.81D-01 WtEn= 1.19D-01
 Coeff-Com: -0.227D-01 0.475D+00 0.547D+00
 Coeff-En:   0.000D+00 0.000D+00 0.100D+01
 Coeff:     -0.200D-01 0.419D+00 0.601D+00
 Gap=     0.332 Goal=   None    Shift=    0.000
 RMSDP=1.40D-03 MaxDP=3.66D-02 DE=-1.33D-01 OVMax= 5.72D-02

 Cycle   4  Pass 0  IDiag  1:
 E= -532.909761718157     Delta-E=       -0.009840416446 Rises=F Damp=F
 DIIS: error= 7.67D-03 at cycle   4 NSaved=   4.
 NSaved= 4 IEnMin= 4 EnMin= -532.909761718157     IErMin= 4 ErrMin= 7.67D-03
 ErrMax= 7.67D-03  0.00D+00 EMaxC= 1.00D-01 BMatC= 3.75D-03 BMatP= 1.53D-02
 IDIUse=3 WtCom= 9.23D-01 WtEn= 7.67D-02
 Coeff-Com: -0.659D-02 0.377D-01 0.337D+00 0.632D+00
 Coeff-En:   0.000D+00 0.000D+00 0.195D+00 0.805D+00
 Coeff:     -0.608D-02 0.348D-01 0.326D+00 0.645D+00
 Gap=     0.330 Goal=   None    Shift=    0.000
 RMSDP=5.35D-04 MaxDP=1.16D-02 DE=-9.84D-03 OVMax= 1.88D-02

 Cycle   5  Pass 0  IDiag  1:
 E= -532.912458603956     Delta-E=       -0.002696885799 Rises=F Damp=F
 DIIS: error= 1.15D-03 at cycle   5 NSaved=   5.
 NSaved= 5 IEnMin= 5 EnMin= -532.912458603956     IErMin= 5 ErrMin= 1.15D-03
 ErrMax= 1.15D-03  0.00D+00 EMaxC= 1.00D-01 BMatC= 1.70D-04 BMatP= 3.75D-03
 IDIUse=3 WtCom= 9.88D-01 WtEn= 1.15D-02
 Coeff-Com: -0.878D-03-0.748D-02 0.140D+00 0.332D+00 0.536D+00
 Coeff-En:   0.000D+00 0.000D+00 0.000D+00 0.000D+00 0.100D+01
 Coeff:     -0.868D-03-0.739D-02 0.139D+00 0.328D+00 0.541D+00
 Gap=     0.327 Goal=   None    Shift=    0.000
 RMSDP=1.10D-04 MaxDP=2.17D-03 DE=-2.70D-03 OVMax= 3.80D-03

 Cycle   6  Pass 0  IDiag  1:
 E= -532.912608697281     Delta-E=       -0.000150093325 Rises=F Damp=F
 DIIS: error= 2.89D-04 at cycle   6 NSaved=   6.
 NSaved= 6 IEnMin= 6 EnMin= -532.912608697281     IErMin= 6 ErrMin= 2.89D-04
 ErrMax= 2.89D-04  0.00D+00 EMaxC= 1.00D-01 BMatC= 4.30D-06 BMatP= 1.70D-04
 IDIUse=3 WtCom= 9.97D-01 WtEn= 2.89D-03
 Coeff-Com:  0.531D-03-0.389D-02 0.188D-01 0.376D-01 0.141D+00 0.806D+00
 Coeff-En:   0.000D+00 0.000D+00 0.000D+00 0.000D+00 0.000D+00 0.100D+01
 Coeff:      0.530D-03-0.388D-02 0.188D-01 0.375D-01 0.140D+00 0.807D+00
 Gap=     0.328 Goal=   None    Shift=    0.000
 RMSDP=2.60D-05 MaxDP=3.83D-04 DE=-1.50D-04 OVMax= 5.70D-04

 Cycle   7  Pass 0  IDiag  1:
 E= -532.912612716056     Delta-E=       -0.000004018775 Rises=F Damp=F
 DIIS: error= 9.12D-05 at cycle   7 NSaved=   7.
 NSaved= 7 IEnMin= 7 EnMin= -532.912612716056     IErMin= 7 ErrMin= 9.12D-05
 ErrMax= 9.12D-05  0.00D+00 EMaxC= 1.00D-01 BMatC= 5.28D-07 BMatP= 4.30D-06
 IDIUse=1 WtCom= 1.00D+00 WtEn= 0.00D+00
 Coeff-Com:  0.405D-03-0.564D-03-0.122D-01-0.355D-01-0.215D-01 0.254D+00
 Coeff-Com:  0.815D+00
 Coeff:      0.405D-03-0.564D-03-0.122D-01-0.355D-01-0.215D-01 0.254D+00
 Coeff:      0.815D+00
 Gap=     0.328 Goal=   None    Shift=    0.000
 RMSDP=1.33D-05 MaxDP=2.39D-04 DE=-4.02D-06 OVMax= 3.19D-04

 Cycle   8  Pass 0  IDiag  1:
 E= -532.912613355989     Delta-E=       -0.000000639933 Rises=F Damp=F
 DIIS: error= 2.65D-05 at cycle   8 NSaved=   8.
 NSaved= 8 IEnMin= 8 EnMin= -532.912613355989     IErMin= 8 ErrMin= 2.65D-05
 ErrMax= 2.65D-05  0.00D+00 EMaxC= 1.00D-01 BMatC= 4.94D-08 BMatP= 5.28D-07
 IDIUse=1 WtCom= 1.00D+00 WtEn= 0.00D+00
 Coeff-Com:  0.988D-04 0.127D-03-0.502D-02-0.144D-01-0.180D-01 0.425D-02
 Coeff-Com:  0.268D+00 0.765D+00
 Coeff:      0.988D-04 0.127D-03-0.502D-02-0.144D-01-0.180D-01 0.425D-02
 Coeff:      0.268D+00 0.765D+00
 Gap=     0.328 Goal=   None    Shift=    0.000
 RMSDP=3.43D-06 MaxDP=4.80D-05 DE=-6.40D-07 OVMax= 9.28D-05

 Initial convergence to 1.0D-05 achieved.  Increase integral accuracy.
 Cycle   9  Pass 1  IDiag  1:
 E= -532.912818189069     Delta-E=       -0.000204833080 Rises=F Damp=F
 DIIS: error= 1.38D-04 at cycle   1 NSaved=   1.
 NSaved= 1 IEnMin= 1 EnMin= -532.912818189069     IErMin= 1 ErrMin= 1.38D-04
 ErrMax= 1.38D-04  0.00D+00 EMaxC= 1.00D-01 BMatC= 1.74D-06 BMatP= 1.74D-06
 IDIUse=3 WtCom= 9.99D-01 WtEn= 1.38D-03
 Coeff-Com:  0.100D+01
 Coeff-En:   0.100D+01
 Coeff:      0.100D+01
 Gap=     0.328 Goal=   None    Shift=    0.000
 RMSDP=3.43D-06 MaxDP=4.80D-05 DE=-2.05D-04 OVMax= 1.95D-04

 Cycle  10  Pass 1  IDiag  1:
 E= -532.912819774310     Delta-E=       -0.000001585241 Rises=F Damp=F
 DIIS: error= 6.86D-05 at cycle   2 NSaved=   2.
 NSaved= 2 IEnMin= 2 EnMin= -532.912819774310     IErMin= 2 ErrMin= 6.86D-05
 ErrMax= 6.86D-05  0.00D+00 EMaxC= 1.00D-01 BMatC= 3.36D-07 BMatP= 1.74D-06
 IDIUse=1 WtCom= 1.00D+00 WtEn= 0.00D+00
 Coeff-Com:  0.228D+00 0.772D+00
 Coeff:      0.228D+00 0.772D+00
 Gap=     0.328 Goal=   None    Shift=    0.000
 RMSDP=6.95D-06 MaxDP=1.34D-04 DE=-1.59D-06 OVMax= 1.66D-04

 Cycle  11  Pass 1  IDiag  1:
 E= -532.912820013967     Delta-E=       -0.000000239658 Rises=F Damp=F
 DIIS: error= 2.94D-05 at cycle   3 NSaved=   3.
 NSaved= 3 IEnMin= 3 EnMin= -532.912820013967     IErMin= 3 ErrMin= 2.94D-05
 ErrMax= 2.94D-05  0.00D+00 EMaxC= 1.00D-01 BMatC= 1.25D-07 BMatP= 3.36D-07
 IDIUse=1 WtCom= 1.00D+00 WtEn= 0.00D+00
 Coeff-Com: -0.352D-01 0.363D+00 0.672D+00
 Coeff:     -0.352D-01 0.363D+00 0.672D+00
 Gap=     0.328 Goal=   None    Shift=    0.000
 RMSDP=3.38D-06 MaxDP=7.07D-05 DE=-2.40D-07 OVMax= 9.42D-05

 Cycle  12  Pass 1  IDiag  1:
 E= -532.912820116523     Delta-E=       -0.000000102555 Rises=F Damp=F
 DIIS: error= 8.35D-06 at cycle   4 NSaved=   4.
 NSaved= 4 IEnMin= 4 EnMin= -532.912820116523     IErMin= 4 ErrMin= 8.35D-06
 ErrMax= 8.35D-06  0.00D+00 EMaxC= 1.00D-01 BMatC= 1.00D-08 BMatP= 1.25D-07
 IDIUse=1 WtCom= 1.00D+00 WtEn= 0.00D+00
 Coeff-Com: -0.295D-01 0.154D+00 0.349D+00 0.526D+00
 Coeff:     -0.295D-01 0.154D+00 0.349D+00 0.526D+00
 Gap=     0.328 Goal=   None    Shift=    0.000
 RMSDP=7.76D-07 MaxDP=1.52D-05 DE=-1.03D-07 OVMax= 2.77D-05

 Cycle  13  Pass 1  IDiag  1:
 E= -532.912820124844     Delta-E=       -0.000000008322 Rises=F Damp=F
 DIIS: error= 2.43D-06 at cycle   5 NSaved=   5.
 NSaved= 5 IEnMin= 5 EnMin= -532.912820124844     IErMin= 5 ErrMin= 2.43D-06
 ErrMax= 2.43D-06  0.00D+00 EMaxC= 1.00D-01 BMatC= 3.34D-10 BMatP= 1.00D-08
 IDIUse=1 WtCom= 1.00D+00 WtEn= 0.00D+00
 Coeff-Com: -0.558D-02 0.986D-02 0.358D-01 0.148D+00 0.812D+00
 Coeff:     -0.558D-02 0.986D-02 0.358D-01 0.148D+00 0.812D+00
 Gap=     0.328 Goal=   None    Shift=    0.000
 RMSDP=3.07D-07 MaxDP=5.84D-06 DE=-8.32D-09 OVMax= 7.24D-06

 Cycle  14  Pass 1  IDiag  1:
 E= -532.912820125054     Delta-E=       -0.000000000209 Rises=F Damp=F
 DIIS: error= 1.63D-06 at cycle   6 NSaved=   6.
 NSaved= 6 IEnMin= 6 EnMin= -532.912820125054     IErMin= 6 ErrMin= 1.63D-06
 ErrMax= 1.63D-06  0.00D+00 EMaxC= 1.00D-01 BMatC= 1.92D-10 BMatP= 3.34D-10
 IDIUse=1 WtCom= 1.00D+00 WtEn= 0.00D+00
 Coeff-Com:  0.143D-02-0.177D-01-0.327D-01 0.112D-01 0.494D+00 0.544D+00
 Coeff:      0.143D-02-0.177D-01-0.327D-01 0.112D-01 0.494D+00 0.544D+00
 Gap=     0.328 Goal=   None    Shift=    0.000
 RMSDP=1.12D-07 MaxDP=3.36D-06 DE=-2.09D-10 OVMax= 5.81D-06

 Cycle  15  Pass 1  IDiag  1:
 E= -532.912820125205     Delta-E=       -0.000000000151 Rises=F Damp=F
 DIIS: error= 3.49D-07 at cycle   7 NSaved=   7.
 NSaved= 7 IEnMin= 7 EnMin= -532.912820125205     IErMin= 7 ErrMin= 3.49D-07
 ErrMax= 3.49D-07  0.00D+00 EMaxC= 1.00D-01 BMatC= 6.31D-12 BMatP= 1.92D-10
 IDIUse=1 WtCom= 1.00D+00 WtEn= 0.00D+00
 Coeff-Com:  0.786D-03-0.551D-02-0.119D-01-0.575D-02 0.594D-01 0.178D+00
 Coeff-Com:  0.785D+00
 Coeff:      0.786D-03-0.551D-02-0.119D-01-0.575D-02 0.594D-01 0.178D+00
 Coeff:      0.785D+00
 Gap=     0.328 Goal=   None    Shift=    0.000
 RMSDP=3.96D-08 MaxDP=7.57D-07 DE=-1.51D-10 OVMax= 1.02D-06

 Cycle  16  Pass 1  IDiag  1:
 E= -532.912820125214     Delta-E=       -0.000000000009 Rises=F Damp=F
 DIIS: error= 7.24D-08 at cycle   8 NSaved=   8.
 NSaved= 8 IEnMin= 8 EnMin= -532.912820125214     IErMin= 8 ErrMin= 7.24D-08
 ErrMax= 7.24D-08  0.00D+00 EMaxC= 1.00D-01 BMatC= 1.06D-12 BMatP= 6.31D-12
 IDIUse=1 WtCom= 1.00D+00 WtEn= 0.00D+00
 Coeff-Com:  0.133D-03 0.735D-04-0.696D-03-0.357D-02-0.492D-01 0.104D-01
 Coeff-Com:  0.349D+00 0.694D+00
 Coeff:      0.133D-03 0.735D-04-0.696D-03-0.357D-02-0.492D-01 0.104D-01
 Coeff:      0.349D+00 0.694D+00
 Gap=     0.328 Goal=   None    Shift=    0.000
 RMSDP=1.32D-08 MaxDP=2.33D-07 DE=-8.87D-12 OVMax= 4.23D-07

 Cycle  17  Pass 1  IDiag  1:
 E= -532.912820125218     Delta-E=       -0.000000000004 Rises=F Damp=F
 DIIS: error= 2.95D-08 at cycle   9 NSaved=   9.
 NSaved= 9 IEnMin= 9 EnMin= -532.912820125218     IErMin= 9 ErrMin= 2.95D-08
 ErrMax= 2.95D-08  0.00D+00 EMaxC= 1.00D-01 BMatC= 8.96D-14 BMatP= 1.06D-12
 IDIUse=1 WtCom= 1.00D+00 WtEn= 0.00D+00
 Coeff-Com: -0.309D-04 0.576D-03 0.977D-03-0.478D-03-0.233D-01-0.120D-01
 Coeff-Com:  0.292D-01 0.235D+00 0.770D+00
 Coeff:     -0.309D-04 0.576D-03 0.977D-03-0.478D-03-0.233D-01-0.120D-01
 Coeff:      0.292D-01 0.235D+00 0.770D+00
 Gap=     0.328 Goal=   None    Shift=    0.000
 RMSDP=4.83D-09 MaxDP=8.97D-08 DE=-4.09D-12 OVMax= 2.02D-07

 SCF Done:  E(RM062X) =  -532.912820125     A.U. after   17 cycles
            NFock= 17  Conv=0.48D-08     -V/T= 2.0051
 KE= 5.302086948085D+02 PE=-2.406447648945D+03 EE= 7.560959693011D+02
 Leave Link  502 at Thu Mar 12 19:28:07 2020, MaxMem=    33554432 cpu:        55.1
 (Enter /usr/local/gaussian09d01/g09/l601.exe)
 Copying SCF densities to generalized density rwf, IOpCl= 0 IROHF=0.

 **********************************************************************

            Population analysis using the SCF density.

 **********************************************************************

 Orbital symmetries:
       Occupied  (A) (A) (A) (A) (A) (A) (A) (A) (A) (A) (A) (A)
                 (A) (A) (A) (A) (A) (A) (A) (A) (A) (A) (A) (A)
                 (A) (A) (A) (A) (A) (A) (A) (A) (A) (A) (A) (A)
                 (A) (A) (A) (A)
       Virtual   (A) (A) (A) (A) (A) (A) (A) (A) (A) (A) (A) (A)
                 (A) (A) (A) (A) (A) (A) (A) (A) (A) (A) (A) (A)
                 (A) (A) (A) (A) (A) (A) (A) (A) (A) (A) (A) (A)
                 (A) (A) (A) (A) (A) (A) (A) (A) (A) (A) (A) (A)
                 (A) (A) (A) (A) (A) (A) (A) (A) (A) (A) (A) (A)
                 (A) (A) (A) (A) (A) (A) (A) (A) (A) (A) (A) (A)
                 (A) (A) (A) (A)
 The electronic state is 1-A.
 Alpha  occ. eigenvalues --  -19.88123 -19.84171 -19.80679 -14.99009 -14.93037
 Alpha  occ. eigenvalues --  -10.90095 -10.86319 -10.78105 -10.75685 -10.63112
 Alpha  occ. eigenvalues --   -1.45028  -1.40399  -1.31389  -1.26282  -1.18568
 Alpha  occ. eigenvalues --   -1.06697  -0.97627  -0.95127  -0.90087  -0.87166
 Alpha  occ. eigenvalues --   -0.84524  -0.79768  -0.77587  -0.74216  -0.73737
 Alpha  occ. eigenvalues --   -0.73350  -0.72650  -0.69418  -0.66539  -0.64994
 Alpha  occ. eigenvalues --   -0.63897  -0.62397  -0.60841  -0.57142  -0.56910
 Alpha  occ. eigenvalues --   -0.56881  -0.55977  -0.54294  -0.51739  -0.49478
 Alpha virt. eigenvalues --   -0.16707  -0.12383  -0.04967  -0.02986  -0.01299
 Alpha virt. eigenvalues --   -0.00502   0.00902   0.01547   0.04657   0.05129
 Alpha virt. eigenvalues --    0.06381   0.07229   0.07894   0.10824   0.11103
 Alpha virt. eigenvalues --    0.11241   0.12129   0.12795   0.16142   0.18586
 Alpha virt. eigenvalues --    0.20582   0.23400   0.27664   0.38658   0.41207
 Alpha virt. eigenvalues --    0.43283   0.45742   0.46178   0.48040   0.48129
 Alpha virt. eigenvalues --    0.49561   0.51629   0.51915   0.54849   0.57882
 Alpha virt. eigenvalues --    0.58280   0.59555   0.62929   0.64066   0.67559
 Alpha virt. eigenvalues --    0.69002   0.70793   0.75138   0.76348   0.77436
 Alpha virt. eigenvalues --    0.78553   0.79788   0.80813   0.83928   0.84532
 Alpha virt. eigenvalues --    0.85800   0.87421   0.87835   0.88112   0.91843
 Alpha virt. eigenvalues --    0.92208   0.94485   0.95071   0.95771   0.97433
 Alpha virt. eigenvalues --    1.02277   1.03998   1.08863   1.10946   1.11716
 Alpha virt. eigenvalues --    1.14343   1.19148   1.27709   1.29765   1.33578
 Alpha virt. eigenvalues --    1.42121   1.54121   1.63586   1.75473   1.76477
 Alpha virt. eigenvalues --    1.86494
          Condensed to atoms (all electrons):
               1          2          3          4          5          6
     1  C    5.189380   0.375534   0.371693   0.000000   0.370154   0.370729
     2  H    0.375534   0.468503  -0.017895   0.000000  -0.019774  -0.020219
     3  H    0.371693  -0.017895   0.521039   0.000000  -0.029572  -0.030175
     4  H    0.000000   0.000000   0.000000   0.302490   0.000000   0.000000
     5  H    0.370154  -0.019774  -0.029572   0.000000   0.538158  -0.032279
     6  H    0.370729  -0.020219  -0.030175   0.000000  -0.032279   0.545598
     7  C    0.000000   0.000000  -0.000001  -0.005962   0.000000   0.000000
     8  C   -0.000004   0.000001   0.000083   0.000065  -0.000011  -0.000007
     9  C    0.000281   0.000037   0.001476   0.000061  -0.000155  -0.000131
    10  N    0.000000   0.000000  -0.000001   0.000028   0.000000   0.000000
    11  O   -0.001301   0.000015   0.003250   0.000381   0.000043   0.000016
    12  O   -0.005274   0.000175  -0.001615   0.000001  -0.000767  -0.000635
    13  C    0.000000   0.000000   0.000000  -0.016095   0.000000   0.000000
    14  H    0.000000   0.000000   0.000000  -0.000068   0.000000   0.000000
    15  H    0.000000   0.000000   0.000000   0.003392   0.000000   0.000000
    16  H    0.000001   0.000000  -0.000002   0.000005   0.000000   0.000000
    17  H    0.000000   0.000000   0.000000  -0.000020   0.000000   0.000000
    18  H   -0.000001   0.000000   0.000000   0.000000   0.000000   0.000000
    19  H    0.027107  -0.000947   0.002071   0.000000   0.005218   0.004737
    20  N    0.000000   0.000000   0.000000   0.006002   0.000000   0.000000
    21  O    0.000000   0.000000   0.000000   0.281425   0.000000   0.000000
    22  H    0.000000   0.000000   0.000000  -0.000001   0.000000   0.000000
    23  H    0.000000   0.000000   0.000000  -0.000021   0.000000   0.000000
               7          8          9         10         11         12
     1  C    0.000000  -0.000004   0.000281   0.000000  -0.001301  -0.005274
     2  H    0.000000   0.000001   0.000037   0.000000   0.000015   0.000175
     3  H   -0.000001   0.000083   0.001476  -0.000001   0.003250  -0.001615
     4  H   -0.005962   0.000065   0.000061   0.000028   0.000381   0.000001
     5  H    0.000000  -0.000011  -0.000155   0.000000   0.000043  -0.000767
     6  H    0.000000  -0.000007  -0.000131   0.000000   0.000016  -0.000635
     7  C    5.439007   0.217499  -0.048055  -0.074301   0.007798   0.005354
     8  C    0.217499   5.569894   0.150855   0.192991  -0.124334  -0.148203
     9  C   -0.048055   0.150855   4.754402  -0.049281   0.494433   0.196271
    10  N   -0.074301   0.192991  -0.049281   7.096092   0.002203   0.001777
    11  O    0.007798  -0.124334   0.494433   0.002203   8.124471  -0.108423
    12  O    0.005354  -0.148203   0.196271   0.001777  -0.108423   8.416147
    13  C    0.265638  -0.016022  -0.007479  -0.006983   0.011550  -0.000510
    14  H    0.376108  -0.027702   0.005579  -0.001452   0.000419  -0.000025
    15  H    0.366804  -0.027330  -0.001909   0.003748   0.004662   0.000131
    16  H   -0.043348   0.385729  -0.026767  -0.035700   0.001064   0.000886
    17  H   -0.010324  -0.010859  -0.000592   0.096372   0.000196  -0.000074
    18  H    0.004843  -0.034152  -0.007439   0.320742   0.000225   0.013181
    19  H   -0.000158   0.005388  -0.018823  -0.000117  -0.000683   0.237007
    20  N   -0.102051   0.003615   0.000069  -0.075506  -0.003504   0.000052
    21  O   -0.067867   0.002727  -0.000474  -0.000166  -0.001641  -0.000001
    22  H   -0.000883  -0.029149   0.004130   0.322179  -0.000080  -0.000003
    23  H    0.003567  -0.000203  -0.000101   0.001460   0.000022   0.000003
              13         14         15         16         17         18
     1  C    0.000000   0.000000   0.000000   0.000001   0.000000  -0.000001
     2  H    0.000000   0.000000   0.000000   0.000000   0.000000   0.000000
     3  H    0.000000   0.000000   0.000000  -0.000002   0.000000   0.000000
     4  H   -0.016095  -0.000068   0.003392   0.000005  -0.000020   0.000000
     5  H    0.000000   0.000000   0.000000   0.000000   0.000000   0.000000
     6  H    0.000000   0.000000   0.000000   0.000000   0.000000   0.000000
     7  C    0.265638   0.376108   0.366804  -0.043348  -0.010324   0.004843
     8  C   -0.016022  -0.027702  -0.027330   0.385729  -0.010859  -0.034152
     9  C   -0.007479   0.005579  -0.001909  -0.026767  -0.000592  -0.007439
    10  N   -0.006983  -0.001452   0.003748  -0.035700   0.096372   0.320742
    11  O    0.011550   0.000419   0.004662   0.001064   0.000196   0.000225
    12  O   -0.000510  -0.000025   0.000131   0.000886  -0.000074   0.013181
    13  C    4.624699  -0.035212  -0.031080   0.004115  -0.018738   0.000203
    14  H   -0.035212   0.439828  -0.015696  -0.003205  -0.000279  -0.000054
    15  H   -0.031080  -0.015696   0.460561  -0.000706   0.000387  -0.000100
    16  H    0.004115  -0.003205  -0.000706   0.458833   0.000997   0.000993
    17  H   -0.018738  -0.000279   0.000387   0.000997   0.251495  -0.000475
    18  H    0.000203  -0.000054  -0.000100   0.000993  -0.000475   0.336777
    19  H   -0.000011   0.000002  -0.000002  -0.000245  -0.000021  -0.000258
    20  N    0.306560  -0.001788   0.004460  -0.000319   0.234706   0.000283
    21  O    0.349381   0.000997  -0.002737  -0.000070   0.001047   0.000002
    22  H   -0.000246   0.001613  -0.000071  -0.003784  -0.001579  -0.020724
    23  H   -0.019430  -0.000128  -0.000065   0.000010  -0.001927  -0.000012
              19         20         21         22         23
     1  C    0.027107   0.000000   0.000000   0.000000   0.000000
     2  H   -0.000947   0.000000   0.000000   0.000000   0.000000
     3  H    0.002071   0.000000   0.000000   0.000000   0.000000
     4  H    0.000000   0.006002   0.281425  -0.000001  -0.000021
     5  H    0.005218   0.000000   0.000000   0.000000   0.000000
     6  H    0.004737   0.000000   0.000000   0.000000   0.000000
     7  C   -0.000158  -0.102051  -0.067867  -0.000883   0.003567
     8  C    0.005388   0.003615   0.002727  -0.029149  -0.000203
     9  C   -0.018823   0.000069  -0.000474   0.004130  -0.000101
    10  N   -0.000117  -0.075506  -0.000166   0.322179   0.001460
    11  O   -0.000683  -0.003504  -0.001641  -0.000080   0.000022
    12  O    0.237007   0.000052  -0.000001  -0.000003   0.000003
    13  C   -0.000011   0.306560   0.349381  -0.000246  -0.019430
    14  H    0.000002  -0.001788   0.000997   0.001613  -0.000128
    15  H   -0.000002   0.004460  -0.002737  -0.000071  -0.000065
    16  H   -0.000245  -0.000319  -0.000070  -0.003784   0.000010
    17  H   -0.000021   0.234706   0.001047  -0.001579  -0.001927
    18  H   -0.000258   0.000283   0.000002  -0.020724  -0.000012
    19  H    0.274500   0.000011   0.000000   0.000016  -0.000001
    20  N    0.000011   7.117119  -0.112463   0.000930   0.306199
    21  O    0.000000  -0.112463   8.057132   0.000002  -0.000680
    22  H    0.000016   0.000930   0.000002   0.369383  -0.000021
    23  H   -0.000001   0.306199  -0.000680  -0.000021   0.291593
 Mulliken charges:
               1
     1  C   -0.698298
     2  H    0.214570
     3  H    0.179648
     4  H    0.428319
     5  H    0.168983
     6  H    0.162365
     7  C   -0.333669
     8  C   -0.110869
     9  C    0.553611
    10  N   -0.794086
    11  O   -0.410784
    12  O   -0.605455
    13  C    0.589658
    14  H    0.261063
    15  H    0.235549
    16  H    0.261511
    17  H    0.459687
    18  H    0.385965
    19  H    0.465208
    20  N   -0.684376
    21  O   -0.506614
    22  H    0.358284
    23  H    0.419732
 Sum of Mulliken charges =   1.00000
 Mulliken charges with hydrogens summed into heavy atoms:
               1
     1  C    0.027268
     7  C    0.162943
     8  C    0.150641
     9  C    0.553611
    10  N   -0.049837
    11  O   -0.410784
    12  O   -0.140247
    13  C    0.589658
    20  N    0.195043
    21  O   -0.078295
 Electronic spatial extent (au):  <R**2>=           1993.9986
 Charge=              1.0000 electrons
 Dipole moment (field-independent basis, Debye):
    X=              4.6611    Y=              2.0898    Z=             -0.0554  Tot=              5.1084
 Quadrupole moment (field-independent basis, Debye-Ang):
   XX=            -33.4785   YY=            -48.5447   ZZ=            -48.0502
   XY=             -0.6120   XZ=             -3.2102   YZ=              0.6821
 Traceless Quadrupole moment (field-independent basis, Debye-Ang):
   XX=              9.8793   YY=             -5.1869   ZZ=             -4.6924
   XY=             -0.6120   XZ=             -3.2102   YZ=              0.6821
 Octapole moment (field-independent basis, Debye-Ang**2):
  XXX=            -20.7277  YYY=             17.0025  ZZZ=             12.4221  XYY=             22.7807
  XXY=            -16.7950  XXZ=             -0.2732  XZZ=             23.0150  YZZ=             -5.3208
  YYZ=             -4.4796  XYZ=              5.7532
 Hexadecapole moment (field-independent basis, Debye-Ang**3):
 XXXX=          -1428.9749 YYYY=           -430.5393 ZZZZ=           -196.1051 XXXY=             26.4072
 XXXZ=            -30.1498 YYYX=            -13.0359 YYYZ=             36.2129 ZZZX=             29.0188
 ZZZY=             -6.9185 XXYY=           -332.0063 XXZZ=           -290.6271 YYZZ=           -110.1628
 XXYZ=              8.3121 YYXZ=            -22.9960 ZZXY=            -28.8209
 N-N= 5.872301647103D+02 E-N=-2.406447650092D+03  KE= 5.302086948085D+02
 No NMR shielding tensors so no spin-rotation constants.
 Leave Link  601 at Thu Mar 12 19:28:07 2020, MaxMem=    33554432 cpu:         0.1
 (Enter /usr/local/gaussian09d01/g09/l9999.exe)
 1\1\GINC-KARURA\SP\RM062X\6-31G\C5H13N2O3(1+)\RTAKE\12-Mar-2020\0\\#p 
 M062X/6-31G\\chk calc\\1,1\C,0,3.824482709,-1.14219544,1.17225369\H,0,
 4.799113079,-1.62961423,1.173808707\H,0,3.053614027,-1.916312598,1.160
 804944\H,0,-2.520059998,-2.767647157,-1.070391135\H,0,3.75960642,-0.53
 291794,2.07824618\H,0,3.765323683,-0.52154146,0.273951194\C,0,-2.40154
 2122,-0.705499021,0.492562549\C,0,-1.33365594,0.193207044,1.141270536\
 C,0,0.021967089,-0.47033751,0.950186539\N,0,-1.303304814,1.529148773,0
 .515945207\O,0,0.155929117,-1.611462803,0.51692019\O,0,1.024922388,0.3
 53392554,1.298656\C,0,-2.121889445,-0.918337302,-0.967112723\H,0,-3.39
 229932,-0.247402335,0.596496855\H,0,-2.419176945,-1.669900059,1.004436
 439\H,0,-1.526304416,0.239474424,2.221387894\H,0,-1.503902114,0.960750
 702,-1.170400229\H,0,-0.410560182,1.997532273,0.666150752\H,0,1.924402
 159,-0.039925506,1.230818645\N,0,-1.700457396,0.069239192,-1.694919761
 \O,0,-2.336854815,-2.071648312,-1.575178364\H,0,-2.071900591,2.1285565
 43,0.807834339\H,0,-1.514408501,-0.054510917,-2.685235696\\Version=ES6
 4L-G09RevD.01\State=1-A\HF=-532.9128201\RMSD=4.832e-09\Dipole=-1.85715
 25,0.708702,-0.2967133\Quadrupole=7.0069094,-3.337981,-3.6689284,1.578
 8898,2.6958511,0.2138524\PG=C01 [X(C5H13N2O3)]\\@


 Any fool can criticize, condemn, and complain -- and most do.
 -- Dale Carnegie
 Job cpu time:       0 days  0 hours  0 minutes 56.5 seconds.
 File lengths (MBytes):  RWF=      7 Int=      0 D2E=      0 Chk=      2 Scr=      1
 Normal termination of Gaussian 09 at Thu Mar 12 19:28:07 2020.
