 Entering Gaussian System, Link 0=g09
 Input=./h4_o21_06.gjf
 Output=./h4_o21_06.log
 Initial command:
 /usr/local/gaussian09d01/g09/l1.exe "/scr/Gau-22222.inp" -scrdir="/scr/"
 Entering Link 1 = /usr/local/gaussian09d01/g09/l1.exe PID=     22224.
  
 Copyright (c) 1988,1990,1992,1993,1995,1998,2003,2009,2013,
            Gaussian, Inc.  All Rights Reserved.
  
 This is part of the Gaussian(R) 09 program.  It is based on
 the Gaussian(R) 03 system (copyright 2003, Gaussian, Inc.),
 the Gaussian(R) 98 system (copyright 1998, Gaussian, Inc.),
 the Gaussian(R) 94 system (copyright 1995, Gaussian, Inc.),
 the Gaussian 92(TM) system (copyright 1992, Gaussian, Inc.),
 the Gaussian 90(TM) system (copyright 1990, Gaussian, Inc.),
 the Gaussian 88(TM) system (copyright 1988, Gaussian, Inc.),
 the Gaussian 86(TM) system (copyright 1986, Carnegie Mellon
 University), and the Gaussian 82(TM) system (copyright 1983,
 Carnegie Mellon University). Gaussian is a federally registered
 trademark of Gaussian, Inc.
  
 This software contains proprietary and confidential information,
 including trade secrets, belonging to Gaussian, Inc.
  
 This software is provided under written license and may be
 used, copied, transmitted, or stored only in accord with that
 written license.
  
 The following legend is applicable only to US Government
 contracts under FAR:
  
                    RESTRICTED RIGHTS LEGEND
  
 Use, reproduction and disclosure by the US Government is
 subject to restrictions as set forth in subparagraphs (a)
 and (c) of the Commercial Computer Software - Restricted
 Rights clause in FAR 52.227-19.
  
 Gaussian, Inc.
 340 Quinnipiac St., Bldg. 40, Wallingford CT 06492
  
  
 ---------------------------------------------------------------
 Warning -- This program may not be used in any manner that
 competes with the business of Gaussian, Inc. or will provide
 assistance to any competitor of Gaussian, Inc.  The licensee
 of this program is prohibited from giving any competitor of
 Gaussian, Inc. access to this program.  By using this program,
 the user acknowledges that Gaussian, Inc. is engaged in the
 business of creating and licensing software in the field of
 computational chemistry and represents and warrants to the
 licensee that it is not a competitor of Gaussian, Inc. and that
 it will not use this program in any manner prohibited above.
 ---------------------------------------------------------------
  

 Cite this work as:
 Gaussian 09, Revision D.01,
 M. J. Frisch, G. W. Trucks, H. B. Schlegel, G. E. Scuseria, 
 M. A. Robb, J. R. Cheeseman, G. Scalmani, V. Barone, B. Mennucci, 
 G. A. Petersson, H. Nakatsuji, M. Caricato, X. Li, H. P. Hratchian, 
 A. F. Izmaylov, J. Bloino, G. Zheng, J. L. Sonnenberg, M. Hada, 
 M. Ehara, K. Toyota, R. Fukuda, J. Hasegawa, M. Ishida, T. Nakajima, 
 Y. Honda, O. Kitao, H. Nakai, T. Vreven, J. A. Montgomery, Jr., 
 J. E. Peralta, F. Ogliaro, M. Bearpark, J. J. Heyd, E. Brothers, 
 K. N. Kudin, V. N. Staroverov, T. Keith, R. Kobayashi, J. Normand, 
 K. Raghavachari, A. Rendell, J. C. Burant, S. S. Iyengar, J. Tomasi, 
 M. Cossi, N. Rega, J. M. Millam, M. Klene, J. E. Knox, J. B. Cross, 
 V. Bakken, C. Adamo, J. Jaramillo, R. Gomperts, R. E. Stratmann, 
 O. Yazyev, A. J. Austin, R. Cammi, C. Pomelli, J. W. Ochterski, 
 R. L. Martin, K. Morokuma, V. G. Zakrzewski, G. A. Voth, 
 P. Salvador, J. J. Dannenberg, S. Dapprich, A. D. Daniels, 
 O. Farkas, J. B. Foresman, J. V. Ortiz, J. Cioslowski, 
 and D. J. Fox, Gaussian, Inc., Wallingford CT, 2013.
 
 ******************************************
 Gaussian 09:  ES64L-G09RevD.01 24-Apr-2013
                12-Mar-2020 
 ******************************************
 --------------
 #p M062X/6-31G
 --------------
 1/38=1/1;
 2/12=2,17=6,18=5,40=1/2;
 3/5=1,6=6,11=2,16=1,25=1,30=1,74=-55/1,2,3;
 4//1;
 5/5=2,38=5/2;
 6/7=2,8=2,9=2,10=2,28=1/1;
 99/5=1,9=1/99;
 Leave Link    1 at Thu Mar 12 19:24:20 2020, MaxMem=           0 cpu:         0.0
 (Enter /usr/local/gaussian09d01/g09/l101.exe)
 --------
 chk calc
 --------
 Symbolic Z-matrix:
 Charge =  1 Multiplicity = 1
 C                     3.82448  -1.1422    1.17225 
 H                     4.79911  -1.62961   1.17381 
 H                     3.05361  -1.91631   1.1608 
 H                    -2.45899  -2.53565  -1.23865 
 H                     3.75961  -0.53292   2.07825 
 H                     3.76532  -0.52154   0.27395 
 C                    -2.40154  -0.7055    0.49256 
 C                    -1.33366   0.19321   1.14127 
 C                     0.02197  -0.47034   0.95019 
 N                    -1.3033    1.52915   0.51595 
 O                     0.15593  -1.61146   0.51692 
 O                     1.02492   0.35339   1.29866 
 C                    -2.12189  -0.91834  -0.96711 
 H                    -3.3923   -0.2474    0.5965 
 H                    -2.41918  -1.6699    1.00444 
 H                    -1.5263    0.23947   2.22139 
 H                    -1.5039    0.96075  -1.1704 
 H                    -0.41056   1.99753   0.66615 
 H                     1.9244   -0.03993   1.23082 
 N                    -1.70046   0.06924  -1.69492 
 O                    -2.33685  -2.07165  -1.57518 
 H                    -2.0719    2.12856   0.80783 
 H                    -1.51441  -0.05451  -2.68524 
 
 NAtoms=     23 NQM=       23 NQMF=       0 NMMI=      0 NMMIF=      0
                NMic=       0 NMicF=      0.
                    Isotopes and Nuclear Properties:
 (Nuclear quadrupole moments (NQMom) in fm**2, nuclear magnetic moments (NMagM)
  in nuclear magnetons)

  Atom         1           2           3           4           5           6           7           8           9          10
 IAtWgt=          12           1           1           1           1           1          12          12          12          14
 AtmWgt=  12.0000000   1.0078250   1.0078250   1.0078250   1.0078250   1.0078250  12.0000000  12.0000000  12.0000000  14.0030740
 NucSpn=           0           1           1           1           1           1           0           0           0           2
 AtZEff=   0.0000000   0.0000000   0.0000000   0.0000000   0.0000000   0.0000000   0.0000000   0.0000000   0.0000000   0.0000000
 NQMom=    0.0000000   0.0000000   0.0000000   0.0000000   0.0000000   0.0000000   0.0000000   0.0000000   0.0000000   2.0440000
 NMagM=    0.0000000   2.7928460   2.7928460   2.7928460   2.7928460   2.7928460   0.0000000   0.0000000   0.0000000   0.4037610
 AtZNuc=   6.0000000   1.0000000   1.0000000   1.0000000   1.0000000   1.0000000   6.0000000   6.0000000   6.0000000   7.0000000

  Atom        11          12          13          14          15          16          17          18          19          20
 IAtWgt=          16          16          12           1           1           1           1           1           1          14
 AtmWgt=  15.9949146  15.9949146  12.0000000   1.0078250   1.0078250   1.0078250   1.0078250   1.0078250   1.0078250  14.0030740
 NucSpn=           0           0           0           1           1           1           1           1           1           2
 AtZEff=   0.0000000   0.0000000   0.0000000   0.0000000   0.0000000   0.0000000   0.0000000   0.0000000   0.0000000   0.0000000
 NQMom=    0.0000000   0.0000000   0.0000000   0.0000000   0.0000000   0.0000000   0.0000000   0.0000000   0.0000000   2.0440000
 NMagM=    0.0000000   0.0000000   0.0000000   2.7928460   2.7928460   2.7928460   2.7928460   2.7928460   2.7928460   0.4037610
 AtZNuc=   8.0000000   8.0000000   6.0000000   1.0000000   1.0000000   1.0000000   1.0000000   1.0000000   1.0000000   7.0000000

  Atom        21          22          23
 IAtWgt=          16           1           1
 AtmWgt=  15.9949146   1.0078250   1.0078250
 NucSpn=           0           1           1
 AtZEff=   0.0000000   0.0000000   0.0000000
 NQMom=    0.0000000   0.0000000   0.0000000
 NMagM=    0.0000000   2.7928460   2.7928460
 AtZNuc=   8.0000000   1.0000000   1.0000000
 Leave Link  101 at Thu Mar 12 19:24:20 2020, MaxMem=    33554432 cpu:         0.0
 (Enter /usr/local/gaussian09d01/g09/l202.exe)
                          Input orientation:                          
 ---------------------------------------------------------------------
 Center     Atomic      Atomic             Coordinates (Angstroms)
 Number     Number       Type             X           Y           Z
 ---------------------------------------------------------------------
      1          6           0        3.824483   -1.142195    1.172254
      2          1           0        4.799113   -1.629614    1.173809
      3          1           0        3.053614   -1.916313    1.160805
      4          1           0       -2.458992   -2.535648   -1.238654
      5          1           0        3.759606   -0.532918    2.078246
      6          1           0        3.765324   -0.521541    0.273951
      7          6           0       -2.401542   -0.705499    0.492563
      8          6           0       -1.333656    0.193207    1.141271
      9          6           0        0.021967   -0.470338    0.950187
     10          7           0       -1.303305    1.529149    0.515945
     11          8           0        0.155929   -1.611463    0.516920
     12          8           0        1.024922    0.353393    1.298656
     13          6           0       -2.121889   -0.918337   -0.967113
     14          1           0       -3.392299   -0.247402    0.596497
     15          1           0       -2.419177   -1.669900    1.004436
     16          1           0       -1.526304    0.239474    2.221388
     17          1           0       -1.503902    0.960751   -1.170400
     18          1           0       -0.410560    1.997532    0.666151
     19          1           0        1.924402   -0.039926    1.230819
     20          7           0       -1.700457    0.069239   -1.694920
     21          8           0       -2.336855   -2.071648   -1.575178
     22          1           0       -2.071901    2.128557    0.807834
     23          1           0       -1.514409   -0.054511   -2.685236
 ---------------------------------------------------------------------
                    Distance matrix (angstroms):
                    1          2          3          4          5
     1  C    0.000000
     2  H    1.089717   0.000000
     3  H    1.092532   1.768935   0.000000
     4  H    6.872862   7.702010   6.043989   0.000000
     5  H    1.093732   1.761058   1.803858   7.326917   0.000000
     6  H    1.093462   1.762467   1.799563   6.714663   1.804340
     7  C    6.278222   7.291606   5.627730   2.519892   6.364270
     8  C    5.328288   6.398015   4.868120   3.791710   5.229388
     9  C    3.867794   4.920879   3.365425   3.900216   3.904662
    10  N    5.819023   6.902903   5.591940   4.575675   5.685594
    11  O    3.756056   4.689455   2.983974   3.282372   4.072774
    12  O    3.176523   4.265257   3.047319   5.188656   2.978557
    13  C    6.323476   7.279405   5.684173   1.674236   6.634362
    14  H    7.294799   8.327247   6.682328   3.078134   7.309368
    15  H    6.268167   7.220389   5.480567   2.404695   6.373630
    16  H    5.624999   6.678459   5.171838   4.532449   5.343962
    17  H    6.188869   7.206477   5.872220   3.625142   6.363118
    18  H    5.296189   6.368250   5.250083   5.326732   5.078138
    19  H    2.197438   3.285472   2.191084   5.616143   2.080661
    20  N    6.341389   7.304801   5.890567   2.751179   6.664208
    21  O    6.809871   7.659919   6.047056   0.586056   7.272004
    22  H    6.752626   7.840192   6.538842   5.108106   6.534820
    23  H    6.675855   7.565298   6.255011   3.023388   7.122841
                    6          7          8          9         10
     6  H    0.000000
     7  C    6.173481   0.000000
     8  C    5.221370   1.539115   0.000000
     9  C    3.804292   2.477522   1.521354   0.000000
    10  N    5.473106   2.490045   1.475362   2.437797   0.000000
    11  O    3.778186   2.713305   2.421882   1.227938   3.463063
    12  O    3.053740   3.675826   2.369245   1.343831   2.723175
    13  C    6.029674   1.501385   2.510403   2.910818   2.976530
    14  H    7.170129   1.096474   2.174610   3.439769   2.743450
    15  H    6.332486   1.091969   2.160613   2.720492   3.423114
    16  H    5.689726   2.155888   1.098138   2.125307   2.149773
    17  H    5.661103   2.519443   2.441706   2.978788   1.790831
    18  H    4.892602   3.361625   2.081690   2.521535   1.019283
    19  H    2.129916   4.438671   3.267616   1.970601   3.659389
    20  N    5.839541   2.424215   2.862497   3.202261   2.678990
    21  O    6.561912   2.479133   3.676285   3.808636   4.290310
    22  H    6.432825   2.870528   2.098038   3.340478   1.017462
    23  H    6.070459   3.362914   3.838774   3.968584   3.577723
                   11         12         13         14         15
    11  O    0.000000
    12  O    2.286245   0.000000
    13  C    2.805572   4.080861   0.000000
    14  H    3.802225   4.512852   2.123434   0.000000
    15  H    2.621499   4.005259   2.130782   1.771124   0.000000
    16  H    3.026729   2.715358   3.444094   2.521757   2.433907
    17  H    3.495479   3.586095   1.988519   2.854401   3.533832
    18  H    3.656231   2.272415   3.754796   3.733008   4.195121
    19  H    2.471210   0.984055   4.687748   5.358426   4.644862
    20  N    3.341132   4.058317   1.297157   2.865865   3.290545
    21  O    3.286734   5.043936   1.321393   3.026220   2.612009
    22  H    4.362981   3.603113   3.526542   2.726407   3.819362
    23  H    3.932929   4.741938   2.016724   3.785954   4.128168
                   16         17         18         19         20
    16  H    0.000000
    17  H    3.467704   0.000000
    18  H    2.598926   2.375549   0.000000
    19  H    3.600926   4.303542   3.149942   0.000000
    20  N    3.923872   1.052876   3.310106   4.659557   0.000000
    21  O    4.517986   3.170662   5.029155   5.491796   2.236680
    22  H    2.421661   2.366391   1.672511   4.566362   3.262290
    23  H    4.915437   1.823621   4.081808   5.211632   1.015211
                   21         22         23
    21  O    0.000000
    22  H    4.836390   0.000000
    23  H    2.444890   4.156696   0.000000
 Stoichiometry    C5H13N2O3(1+)
 Framework group  C1[X(C5H13N2O3)]
 Deg. of freedom    63
 Full point group                 C1      NOp   1
 Largest Abelian subgroup         C1      NOp   1
 Largest concise Abelian subgroup C1      NOp   1
                         Standard orientation:                         
 ---------------------------------------------------------------------
 Center     Atomic      Atomic             Coordinates (Angstroms)
 Number     Number       Type             X           Y           Z
 ---------------------------------------------------------------------
      1          6           0       -4.369382   -0.943640    0.315897
      2          1           0       -5.274122   -1.546665    0.388634
      3          1           0       -3.657444   -1.468881   -0.325112
      4          1           0        2.349449   -2.094450   -0.561130
      5          1           0       -4.650902    0.021877   -0.113958
      6          1           0       -3.968128   -0.824213    1.326041
      7          6           0        1.648133    0.288878   -0.982747
      8          6           0        0.419445    1.166935   -0.685733
      9          6           0       -0.765187    0.249024   -0.423806
     10          7           0        0.638522    2.013926    0.502250
     11          8           0       -0.731246   -0.963039   -0.617670
     12          8           0       -1.819857    0.932653    0.051803
     13          6           0        1.944809   -0.638656    0.159978
     14          1           0        2.527367    0.919714   -1.159521
     15          1           0        1.462979   -0.294723   -1.886917
     16          1           0        0.185983    1.754916   -1.583330
     17          1           0        1.463270    0.764142    1.484547
     18          1           0       -0.240981    2.318877    0.917483
     19          1           0       -2.628054    0.391916    0.202754
     20          7           0        1.839170   -0.213884    1.381054
     21          8           0        2.367880   -1.877940   -0.016846
     22          1           0        1.241635    2.813274    0.321904
     23          1           0        2.043987   -0.824712    2.165651
 ---------------------------------------------------------------------
 Rotational constants (GHZ):      1.8099320      0.7180307      0.6065884
 Leave Link  202 at Thu Mar 12 19:24:20 2020, MaxMem=    33554432 cpu:         0.0
 (Enter /usr/local/gaussian09d01/g09/l301.exe)
 Standard basis: 6-31G (6D, 7F)
 Ernie: Thresh=  0.10000D-02 Tol=  0.10000D-05 Strict=F.
 There are   116 symmetry adapted cartesian basis functions of A   symmetry.
 There are   116 symmetry adapted basis functions of A   symmetry.
   116 basis functions,   272 primitive gaussians,   116 cartesian basis functions
    40 alpha electrons       40 beta electrons
       nuclear repulsion energy       590.1407708168 Hartrees.
 IExCor= 4336 DFT=T Ex+Corr=M062X ExCW=0 ScaHFX=  0.540000
 ScaDFX=  1.000000  1.000000  1.000000  1.000000 ScalE2=  1.000000  1.000000
 IRadAn=      0 IRanWt=     -1 IRanGd=            0 ICorTp=0 IEmpDi=  4
 NAtoms=   23 NActive=   23 NUniq=   23 SFac= 1.00D+00 NAtFMM=   60 NAOKFM=F Big=F
 Integral buffers will be    131072 words long.
 Raffenetti 2 integral format.
 Two-electron integral symmetry is turned on.
 Leave Link  301 at Thu Mar 12 19:24:20 2020, MaxMem=    33554432 cpu:         0.0
 (Enter /usr/local/gaussian09d01/g09/l302.exe)
 NPDir=0 NMtPBC=     1 NCelOv=     1 NCel=       1 NClECP=     1 NCelD=      1
         NCelK=      1 NCelE2=     1 NClLst=     1 CellRange=     0.0.
 One-electron integrals computed using PRISM.
 NBasis=   116 RedAO= T EigKep=  3.51D-03  NBF=   116
 NBsUse=   116 1.00D-06 EigRej= -1.00D+00 NBFU=   116
 Precomputing XC quadrature grid using
 IXCGrd= 4 IRadAn=           0 IRanWt=          -1 IRanGd=           0 AccXCQ= 0.00D+00.
 Generated NRdTot=       0 NPtTot=           0 NUsed=           0 NTot=          32
 NSgBfM=   115   115   115   115   115 MxSgAt=    23 MxSgA2=    23.
 Leave Link  302 at Thu Mar 12 19:24:20 2020, MaxMem=    33554432 cpu:         0.3
 (Enter /usr/local/gaussian09d01/g09/l303.exe)
 DipDrv:  MaxL=1.
 Leave Link  303 at Thu Mar 12 19:24:20 2020, MaxMem=    33554432 cpu:         0.0
 (Enter /usr/local/gaussian09d01/g09/l401.exe)
 ExpMin= 1.61D-01 ExpMax= 5.48D+03 ExpMxC= 8.25D+02 IAcc=1 IRadAn=         1 AccDes= 0.00D+00
 Harris functional with IExCor= 1009 and IRadAn=       1 diagonalized for initial guess.
 HarFok:  IExCor= 1009 AccDes= 0.00D+00 IRadAn=         1 IDoV= 1 UseB2=F ITyADJ=14
 ICtDFT=  3500011 ScaDFX=  1.000000  1.000000  1.000000  1.000000
 FoFCou: FMM=F IPFlag=           0 FMFlag=      100000 FMFlg1=           0
         NFxFlg=           0 DoJE=T BraDBF=F KetDBF=T FulRan=T
         wScrn=  0.000000 ICntrl=     500 IOpCl=  0 I1Cent=   200000004 NGrid=           0
         NMat0=    1 NMatS0=      1 NMatT0=    0 NMatD0=    1 NMtDS0=    0 NMtDT0=    0
 Petite list used in FoFCou.
 Harris En= -532.383844580509    
 JPrj=0 DoOrth=F DoCkMO=F.
 Leave Link  401 at Thu Mar 12 19:24:21 2020, MaxMem=    33554432 cpu:         0.9
 (Enter /usr/local/gaussian09d01/g09/l502.exe)
 Closed shell SCF:
 Using DIIS extrapolation, IDIIS=  1040.
 Integral symmetry usage will be decided dynamically.
 Keep R1 ints in memory in canonical form, NReq=24030401.
 IVT=       60528 IEndB=       60528 NGot=    33554432 MDV=    10465614
 LenX=    10465614 LenY=    10451717
 Requested convergence on RMS density matrix=1.00D-08 within 128 cycles.
 Requested convergence on MAX density matrix=1.00D-06.
 Requested convergence on             energy=1.00D-06.
 No special actions if energy rises.
 FoFCou: FMM=F IPFlag=           0 FMFlag=           0 FMFlg1=           0
         NFxFlg=           0 DoJE=F BraDBF=F KetDBF=F FulRan=T
         wScrn=  0.000000 ICntrl=     600 IOpCl=  0 I1Cent=           0 NGrid=           0
         NMat0=    1 NMatS0=   6786 NMatT0=    0 NMatD0=    1 NMtDS0=    0 NMtDT0=    0
 Symmetry not used in FoFCou.
 Integral accuracy reduced to 1.0D-05 until final iterations.

 Cycle   1  Pass 0  IDiag  1:
 E= -532.185166911815    
 DIIS: error= 5.31D-02 at cycle   1 NSaved=   1.
 NSaved= 1 IEnMin= 1 EnMin= -532.185166911815     IErMin= 1 ErrMin= 5.31D-02
 ErrMax= 5.31D-02  0.00D+00 EMaxC= 1.00D-01 BMatC= 4.10D-01 BMatP= 4.10D-01
 IDIUse=3 WtCom= 4.69D-01 WtEn= 5.31D-01
 Coeff-Com:  0.100D+01
 Coeff-En:   0.100D+01
 Coeff:      0.100D+01
 Gap=     0.243 Goal=   None    Shift=    0.000
 GapD=    0.243 DampG=1.000 DampE=0.500 DampFc=0.5000 IDamp=-1.
 Damping current iteration by 5.00D-01
 RMSDP=9.57D-03 MaxDP=1.93D-01              OVMax= 1.76D-01

 Cycle   2  Pass 0  IDiag  1:
 E= -532.340499277211     Delta-E=       -0.155332365396 Rises=F Damp=T
 DIIS: error= 1.23D-02 at cycle   2 NSaved=   2.
 NSaved= 2 IEnMin= 2 EnMin= -532.340499277211     IErMin= 2 ErrMin= 1.23D-02
 ErrMax= 1.23D-02  0.00D+00 EMaxC= 1.00D-01 BMatC= 2.09D-02 BMatP= 4.10D-01
 IDIUse=3 WtCom= 8.77D-01 WtEn= 1.23D-01
 Coeff-Com:  0.400D-01 0.960D+00
 Coeff-En:   0.616D-01 0.938D+00
 Coeff:      0.427D-01 0.957D+00
 Gap=     0.353 Goal=   None    Shift=    0.000
 RMSDP=2.27D-03 MaxDP=4.16D-02 DE=-1.55D-01 OVMax= 1.13D-01

 Cycle   3  Pass 0  IDiag  1:
 E= -532.508714947076     Delta-E=       -0.168215669865 Rises=F Damp=F
 DIIS: error= 1.18D-02 at cycle   3 NSaved=   3.
 NSaved= 3 IEnMin= 3 EnMin= -532.508714947076     IErMin= 3 ErrMin= 1.18D-02
 ErrMax= 1.18D-02  0.00D+00 EMaxC= 1.00D-01 BMatC= 1.69D-02 BMatP= 2.09D-02
 IDIUse=3 WtCom= 8.82D-01 WtEn= 1.18D-01
 Coeff-Com: -0.153D-01 0.472D+00 0.543D+00
 Coeff-En:   0.000D+00 0.000D+00 0.100D+01
 Coeff:     -0.135D-01 0.417D+00 0.597D+00
 Gap=     0.327 Goal=   None    Shift=    0.000
 RMSDP=1.47D-03 MaxDP=3.68D-02 DE=-1.68D-01 OVMax= 5.82D-02

 Cycle   4  Pass 0  IDiag  1:
 E= -532.519964080297     Delta-E=       -0.011249133221 Rises=F Damp=F
 DIIS: error= 7.66D-03 at cycle   4 NSaved=   4.
 NSaved= 4 IEnMin= 4 EnMin= -532.519964080297     IErMin= 4 ErrMin= 7.66D-03
 ErrMax= 7.66D-03  0.00D+00 EMaxC= 1.00D-01 BMatC= 3.91D-03 BMatP= 1.69D-02
 IDIUse=3 WtCom= 9.23D-01 WtEn= 7.66D-02
 Coeff-Com: -0.718D-02 0.508D-01 0.332D+00 0.624D+00
 Coeff-En:   0.000D+00 0.000D+00 0.177D+00 0.823D+00
 Coeff:     -0.663D-02 0.469D-01 0.320D+00 0.639D+00
 Gap=     0.325 Goal=   None    Shift=    0.000
 RMSDP=5.59D-04 MaxDP=1.25D-02 DE=-1.12D-02 OVMax= 1.99D-02

 Cycle   5  Pass 0  IDiag  1:
 E= -532.522734191173     Delta-E=       -0.002770110876 Rises=F Damp=F
 DIIS: error= 1.30D-03 at cycle   5 NSaved=   5.
 NSaved= 5 IEnMin= 5 EnMin= -532.522734191173     IErMin= 5 ErrMin= 1.30D-03
 ErrMax= 1.30D-03  0.00D+00 EMaxC= 1.00D-01 BMatC= 2.30D-04 BMatP= 3.91D-03
 IDIUse=3 WtCom= 9.87D-01 WtEn= 1.30D-02
 Coeff-Com: -0.148D-02-0.621D-02 0.129D+00 0.330D+00 0.549D+00
 Coeff-En:   0.000D+00 0.000D+00 0.000D+00 0.000D+00 0.100D+01
 Coeff:     -0.146D-02-0.613D-02 0.127D+00 0.326D+00 0.554D+00
 Gap=     0.322 Goal=   None    Shift=    0.000
 RMSDP=1.27D-04 MaxDP=2.43D-03 DE=-2.77D-03 OVMax= 4.73D-03

 Cycle   6  Pass 0  IDiag  1:
 E= -532.522934950852     Delta-E=       -0.000200759679 Rises=F Damp=F
 DIIS: error= 3.20D-04 at cycle   6 NSaved=   6.
 NSaved= 6 IEnMin= 6 EnMin= -532.522934950852     IErMin= 6 ErrMin= 3.20D-04
 ErrMax= 3.20D-04  0.00D+00 EMaxC= 1.00D-01 BMatC= 5.49D-06 BMatP= 2.30D-04
 IDIUse=3 WtCom= 9.97D-01 WtEn= 3.20D-03
 Coeff-Com:  0.304D-03-0.415D-02 0.236D-01 0.549D-01 0.164D+00 0.762D+00
 Coeff-En:   0.000D+00 0.000D+00 0.000D+00 0.000D+00 0.000D+00 0.100D+01
 Coeff:      0.303D-03-0.414D-02 0.235D-01 0.547D-01 0.163D+00 0.762D+00
 Gap=     0.323 Goal=   None    Shift=    0.000
 RMSDP=2.71D-05 MaxDP=4.04D-04 DE=-2.01D-04 OVMax= 5.90D-04

 Cycle   7  Pass 0  IDiag  1:
 E= -532.522939654213     Delta-E=       -0.000004703361 Rises=F Damp=F
 DIIS: error= 8.38D-05 at cycle   7 NSaved=   7.
 NSaved= 7 IEnMin= 7 EnMin= -532.522939654213     IErMin= 7 ErrMin= 8.38D-05
 ErrMax= 8.38D-05  0.00D+00 EMaxC= 1.00D-01 BMatC= 6.73D-07 BMatP= 5.49D-06
 IDIUse=1 WtCom= 1.00D+00 WtEn= 0.00D+00
 Coeff-Com:  0.412D-03-0.739D-03-0.953D-02-0.310D-01-0.160D-01 0.254D+00
 Coeff-Com:  0.803D+00
 Coeff:      0.412D-03-0.739D-03-0.953D-02-0.310D-01-0.160D-01 0.254D+00
 Coeff:      0.803D+00
 Gap=     0.322 Goal=   None    Shift=    0.000
 RMSDP=1.44D-05 MaxDP=2.59D-04 DE=-4.70D-06 OVMax= 3.61D-04

 Cycle   8  Pass 0  IDiag  1:
 E= -532.522940457531     Delta-E=       -0.000000803319 Rises=F Damp=F
 DIIS: error= 3.69D-05 at cycle   8 NSaved=   8.
 NSaved= 8 IEnMin= 8 EnMin= -532.522940457531     IErMin= 8 ErrMin= 3.69D-05
 ErrMax= 3.69D-05  0.00D+00 EMaxC= 1.00D-01 BMatC= 9.84D-08 BMatP= 6.73D-07
 IDIUse=1 WtCom= 1.00D+00 WtEn= 0.00D+00
 Coeff-Com:  0.142D-03 0.663D-04-0.600D-02-0.182D-01-0.214D-01 0.170D-01
 Coeff-Com:  0.345D+00 0.684D+00
 Coeff:      0.142D-03 0.663D-04-0.600D-02-0.182D-01-0.214D-01 0.170D-01
 Coeff:      0.345D+00 0.684D+00
 Gap=     0.322 Goal=   None    Shift=    0.000
 RMSDP=4.02D-06 MaxDP=6.61D-05 DE=-8.03D-07 OVMax= 1.00D-04

 Initial convergence to 1.0D-05 achieved.  Increase integral accuracy.
 Cycle   9  Pass 1  IDiag  1:
 E= -532.523200878204     Delta-E=       -0.000260420673 Rises=F Damp=F
 DIIS: error= 1.40D-04 at cycle   1 NSaved=   1.
 NSaved= 1 IEnMin= 1 EnMin= -532.523200878204     IErMin= 1 ErrMin= 1.40D-04
 ErrMax= 1.40D-04  0.00D+00 EMaxC= 1.00D-01 BMatC= 2.13D-06 BMatP= 2.13D-06
 IDIUse=3 WtCom= 9.99D-01 WtEn= 1.40D-03
 Coeff-Com:  0.100D+01
 Coeff-En:   0.100D+01
 Coeff:      0.100D+01
 Gap=     0.322 Goal=   None    Shift=    0.000
 RMSDP=4.02D-06 MaxDP=6.61D-05 DE=-2.60D-04 OVMax= 1.99D-04

 Cycle  10  Pass 1  IDiag  1:
 E= -532.523202787595     Delta-E=       -0.000001909391 Rises=F Damp=F
 DIIS: error= 6.98D-05 at cycle   2 NSaved=   2.
 NSaved= 2 IEnMin= 2 EnMin= -532.523202787595     IErMin= 2 ErrMin= 6.98D-05
 ErrMax= 6.98D-05  0.00D+00 EMaxC= 1.00D-01 BMatC= 3.24D-07 BMatP= 2.13D-06
 IDIUse=1 WtCom= 1.00D+00 WtEn= 0.00D+00
 Coeff-Com:  0.190D+00 0.810D+00
 Coeff:      0.190D+00 0.810D+00
 Gap=     0.322 Goal=   None    Shift=    0.000
 RMSDP=7.33D-06 MaxDP=1.43D-04 DE=-1.91D-06 OVMax= 1.57D-04

 Cycle  11  Pass 1  IDiag  1:
 E= -532.523203006513     Delta-E=       -0.000000218918 Rises=F Damp=F
 DIIS: error= 3.39D-05 at cycle   3 NSaved=   3.
 NSaved= 3 IEnMin= 3 EnMin= -532.523203006513     IErMin= 3 ErrMin= 3.39D-05
 ErrMax= 3.39D-05  0.00D+00 EMaxC= 1.00D-01 BMatC= 1.37D-07 BMatP= 3.24D-07
 IDIUse=1 WtCom= 1.00D+00 WtEn= 0.00D+00
 Coeff-Com: -0.402D-01 0.379D+00 0.661D+00
 Coeff:     -0.402D-01 0.379D+00 0.661D+00
 Gap=     0.322 Goal=   None    Shift=    0.000
 RMSDP=3.59D-06 MaxDP=8.64D-05 DE=-2.19D-07 OVMax= 5.66D-05

 Cycle  12  Pass 1  IDiag  1:
 E= -532.523203122607     Delta-E=       -0.000000116094 Rises=F Damp=F
 DIIS: error= 6.16D-06 at cycle   4 NSaved=   4.
 NSaved= 4 IEnMin= 4 EnMin= -532.523203122607     IErMin= 4 ErrMin= 6.16D-06
 ErrMax= 6.16D-06  0.00D+00 EMaxC= 1.00D-01 BMatC= 7.51D-09 BMatP= 1.37D-07
 IDIUse=1 WtCom= 1.00D+00 WtEn= 0.00D+00
 Coeff-Com: -0.256D-01 0.163D+00 0.328D+00 0.536D+00
 Coeff:     -0.256D-01 0.163D+00 0.328D+00 0.536D+00
 Gap=     0.322 Goal=   None    Shift=    0.000
 RMSDP=7.54D-07 MaxDP=1.86D-05 DE=-1.16D-07 OVMax= 2.29D-05

 Cycle  13  Pass 1  IDiag  1:
 E= -532.523203128643     Delta-E=       -0.000000006036 Rises=F Damp=F
 DIIS: error= 2.87D-06 at cycle   5 NSaved=   5.
 NSaved= 5 IEnMin= 5 EnMin= -532.523203128643     IErMin= 5 ErrMin= 2.87D-06
 ErrMax= 2.87D-06  0.00D+00 EMaxC= 1.00D-01 BMatC= 5.55D-10 BMatP= 7.51D-09
 IDIUse=1 WtCom= 1.00D+00 WtEn= 0.00D+00
 Coeff-Com: -0.475D-02 0.103D-01 0.339D-01 0.205D+00 0.756D+00
 Coeff:     -0.475D-02 0.103D-01 0.339D-01 0.205D+00 0.756D+00
 Gap=     0.322 Goal=   None    Shift=    0.000
 RMSDP=3.32D-07 MaxDP=6.48D-06 DE=-6.04D-09 OVMax= 8.07D-06

 Cycle  14  Pass 1  IDiag  1:
 E= -532.523203129023     Delta-E=       -0.000000000380 Rises=F Damp=F
 DIIS: error= 1.45D-06 at cycle   6 NSaved=   6.
 NSaved= 6 IEnMin= 6 EnMin= -532.523203129023     IErMin= 6 ErrMin= 1.45D-06
 ErrMax= 1.45D-06  0.00D+00 EMaxC= 1.00D-01 BMatC= 1.99D-10 BMatP= 5.55D-10
 IDIUse=1 WtCom= 1.00D+00 WtEn= 0.00D+00
 Coeff-Com:  0.133D-02-0.194D-01-0.320D-01 0.422D-01 0.442D+00 0.566D+00
 Coeff:      0.133D-02-0.194D-01-0.320D-01 0.422D-01 0.442D+00 0.566D+00
 Gap=     0.322 Goal=   None    Shift=    0.000
 RMSDP=1.16D-07 MaxDP=2.99D-06 DE=-3.80D-10 OVMax= 5.51D-06

 Cycle  15  Pass 1  IDiag  1:
 E= -532.523203129175     Delta-E=       -0.000000000152 Rises=F Damp=F
 DIIS: error= 3.39D-07 at cycle   7 NSaved=   7.
 NSaved= 7 IEnMin= 7 EnMin= -532.523203129175     IErMin= 7 ErrMin= 3.39D-07
 ErrMax= 3.39D-07  0.00D+00 EMaxC= 1.00D-01 BMatC= 5.74D-12 BMatP= 1.99D-10
 IDIUse=1 WtCom= 1.00D+00 WtEn= 0.00D+00
 Coeff-Com:  0.616D-03-0.509D-02-0.102D-01 0.677D-03 0.352D-01 0.150D+00
 Coeff-Com:  0.829D+00
 Coeff:      0.616D-03-0.509D-02-0.102D-01 0.677D-03 0.352D-01 0.150D+00
 Coeff:      0.829D+00
 Gap=     0.322 Goal=   None    Shift=    0.000
 RMSDP=3.94D-08 MaxDP=5.95D-07 DE=-1.52D-10 OVMax= 9.35D-07

 Cycle  16  Pass 1  IDiag  1:
 E= -532.523203129197     Delta-E=       -0.000000000022 Rises=F Damp=F
 DIIS: error= 9.74D-08 at cycle   8 NSaved=   8.
 NSaved= 8 IEnMin= 8 EnMin= -532.523203129197     IErMin= 8 ErrMin= 9.74D-08
 ErrMax= 9.74D-08  0.00D+00 EMaxC= 1.00D-01 BMatC= 1.14D-12 BMatP= 5.74D-12
 IDIUse=1 WtCom= 1.00D+00 WtEn= 0.00D+00
 Coeff-Com:  0.129D-03 0.487D-04-0.963D-03-0.417D-02-0.442D-01-0.761D-04
 Coeff-Com:  0.374D+00 0.676D+00
 Coeff:      0.129D-03 0.487D-04-0.963D-03-0.417D-02-0.442D-01-0.761D-04
 Coeff:      0.374D+00 0.676D+00
 Gap=     0.322 Goal=   None    Shift=    0.000
 RMSDP=1.30D-08 MaxDP=2.54D-07 DE=-2.21D-11 OVMax= 3.33D-07

 Cycle  17  Pass 1  IDiag  1:
 E= -532.523203129202     Delta-E=       -0.000000000005 Rises=F Damp=F
 DIIS: error= 2.48D-08 at cycle   9 NSaved=   9.
 NSaved= 9 IEnMin= 9 EnMin= -532.523203129202     IErMin= 9 ErrMin= 2.48D-08
 ErrMax= 2.48D-08  0.00D+00 EMaxC= 1.00D-01 BMatC= 8.06D-14 BMatP= 1.14D-12
 IDIUse=1 WtCom= 1.00D+00 WtEn= 0.00D+00
 Coeff-Com: -0.177D-04 0.509D-03 0.694D-03-0.892D-03-0.174D-01-0.136D-01
 Coeff-Com:  0.254D-01 0.216D+00 0.789D+00
 Coeff:     -0.177D-04 0.509D-03 0.694D-03-0.892D-03-0.174D-01-0.136D-01
 Coeff:      0.254D-01 0.216D+00 0.789D+00
 Gap=     0.322 Goal=   None    Shift=    0.000
 RMSDP=4.53D-09 MaxDP=7.43D-08 DE=-5.23D-12 OVMax= 1.73D-07

 SCF Done:  E(RM062X) =  -532.523203129     A.U. after   17 cycles
            NFock= 17  Conv=0.45D-08     -V/T= 2.0021
 KE= 5.314290402787D+02 PE=-2.411948178144D+03 EE= 7.578551639197D+02
 Leave Link  502 at Thu Mar 12 19:25:16 2020, MaxMem=    33554432 cpu:        55.5
 (Enter /usr/local/gaussian09d01/g09/l601.exe)
 Copying SCF densities to generalized density rwf, IOpCl= 0 IROHF=0.

 **********************************************************************

            Population analysis using the SCF density.

 **********************************************************************

 Orbital symmetries:
       Occupied  (A) (A) (A) (A) (A) (A) (A) (A) (A) (A) (A) (A)
                 (A) (A) (A) (A) (A) (A) (A) (A) (A) (A) (A) (A)
                 (A) (A) (A) (A) (A) (A) (A) (A) (A) (A) (A) (A)
                 (A) (A) (A) (A)
       Virtual   (A) (A) (A) (A) (A) (A) (A) (A) (A) (A) (A) (A)
                 (A) (A) (A) (A) (A) (A) (A) (A) (A) (A) (A) (A)
                 (A) (A) (A) (A) (A) (A) (A) (A) (A) (A) (A) (A)
                 (A) (A) (A) (A) (A) (A) (A) (A) (A) (A) (A) (A)
                 (A) (A) (A) (A) (A) (A) (A) (A) (A) (A) (A) (A)
                 (A) (A) (A) (A) (A) (A) (A) (A) (A) (A) (A) (A)
                 (A) (A) (A) (A)
 The electronic state is 1-A.
 Alpha  occ. eigenvalues --  -19.87122 -19.84346 -19.80878 -14.99740 -14.93301
 Alpha  occ. eigenvalues --  -10.91029 -10.86518 -10.78392 -10.76079 -10.63173
 Alpha  occ. eigenvalues --   -1.55879  -1.40593  -1.31598  -1.28487  -1.18909
 Alpha  occ. eigenvalues --   -1.07684  -1.03063  -0.96709  -0.90191  -0.87813
 Alpha  occ. eigenvalues --   -0.85093  -0.80624  -0.78280  -0.74567  -0.74407
 Alpha  occ. eigenvalues --   -0.74125  -0.73126  -0.69806  -0.66959  -0.65610
 Alpha  occ. eigenvalues --   -0.64283  -0.63395  -0.61097  -0.58001  -0.57182
 Alpha  occ. eigenvalues --   -0.56970  -0.56048  -0.54490  -0.51944  -0.49782
 Alpha virt. eigenvalues --   -0.17542  -0.12586  -0.04191  -0.01854  -0.01379
 Alpha virt. eigenvalues --    0.00250   0.00701   0.01455   0.04420   0.05971
 Alpha virt. eigenvalues --    0.06017   0.06899   0.07830   0.10904   0.11123
 Alpha virt. eigenvalues --    0.11642   0.11934   0.12633   0.16258   0.18471
 Alpha virt. eigenvalues --    0.20876   0.23212   0.27324   0.38363   0.40710
 Alpha virt. eigenvalues --    0.43774   0.45219   0.45830   0.47838   0.48017
 Alpha virt. eigenvalues --    0.49299   0.51311   0.51704   0.54824   0.57446
 Alpha virt. eigenvalues --    0.57957   0.59400   0.62526   0.63881   0.67442
 Alpha virt. eigenvalues --    0.69746   0.70609   0.74960   0.75918   0.77851
 Alpha virt. eigenvalues --    0.78335   0.80168   0.82944   0.83774   0.85166
 Alpha virt. eigenvalues --    0.86750   0.87319   0.87901   0.88916   0.91697
 Alpha virt. eigenvalues --    0.92075   0.94399   0.94942   0.95855   1.01450
 Alpha virt. eigenvalues --    1.03785   1.05007   1.09140   1.11280   1.12928
 Alpha virt. eigenvalues --    1.18885   1.22870   1.29189   1.33336   1.41416
 Alpha virt. eigenvalues --    1.50084   1.62453   1.71242   1.75303   1.80624
 Alpha virt. eigenvalues --    1.87213
          Condensed to atoms (all electrons):
               1          2          3          4          5          6
     1  C    5.189554   0.375588   0.371728   0.000000   0.370092   0.370589
     2  H    0.375588   0.467815  -0.017835   0.000000  -0.019730  -0.020193
     3  H    0.371728  -0.017835   0.520724   0.000000  -0.029577  -0.030214
     4  H    0.000000   0.000000   0.000000   0.522094   0.000000   0.000000
     5  H    0.370092  -0.019730  -0.029577   0.000000   0.538205  -0.032337
     6  H    0.370589  -0.020193  -0.030214   0.000000  -0.032337   0.546145
     7  C    0.000000   0.000000  -0.000001  -0.013192   0.000000   0.000000
     8  C   -0.000004   0.000001   0.000082  -0.000063  -0.000011  -0.000007
     9  C    0.000291   0.000037   0.001469   0.000110  -0.000155  -0.000132
    10  N    0.000000   0.000000  -0.000001   0.000043   0.000000   0.000000
    11  O   -0.001291   0.000015   0.003219   0.000513   0.000043   0.000017
    12  O   -0.005302   0.000175  -0.001609   0.000001  -0.000770  -0.000638
    13  C    0.000000   0.000000   0.000000  -0.029891   0.000000   0.000000
    14  H    0.000000   0.000000   0.000000  -0.000347   0.000000   0.000000
    15  H    0.000000   0.000000   0.000000   0.002340   0.000000   0.000000
    16  H    0.000001   0.000000  -0.000002   0.000010   0.000000   0.000000
    17  H    0.000000   0.000000   0.000000  -0.000030   0.000000   0.000000
    18  H   -0.000001   0.000000   0.000000   0.000000   0.000000   0.000000
    19  H    0.027250  -0.000954   0.002071   0.000000   0.005248   0.004766
    20  N    0.000000   0.000000   0.000000   0.009365   0.000000   0.000000
    21  O    0.000000   0.000000   0.000000   0.350071   0.000000   0.000000
    22  H    0.000000   0.000000   0.000000  -0.000001   0.000000   0.000000
    23  H    0.000000   0.000000   0.000000   0.000158   0.000000   0.000000
               7          8          9         10         11         12
     1  C    0.000000  -0.000004   0.000291   0.000000  -0.001291  -0.005302
     2  H    0.000000   0.000001   0.000037   0.000000   0.000015   0.000175
     3  H   -0.000001   0.000082   0.001469  -0.000001   0.003219  -0.001609
     4  H   -0.013192  -0.000063   0.000110   0.000043   0.000513   0.000001
     5  H    0.000000  -0.000011  -0.000155   0.000000   0.000043  -0.000770
     6  H    0.000000  -0.000007  -0.000132   0.000000   0.000017  -0.000638
     7  C    5.468407   0.219954  -0.048046  -0.075504   0.007688   0.005310
     8  C    0.219954   5.571578   0.148932   0.191746  -0.124497  -0.148301
     9  C   -0.048046   0.148932   4.756481  -0.049135   0.493754   0.196438
    10  N   -0.075504   0.191746  -0.049135   7.097511   0.002208   0.001771
    11  O    0.007688  -0.124497   0.493754   0.002208   8.122951  -0.108279
    12  O    0.005310  -0.148301   0.196438   0.001771  -0.108279   8.415599
    13  C    0.250280  -0.015390  -0.007282  -0.006619   0.012006  -0.000480
    14  H    0.376811  -0.027975   0.005556  -0.001433   0.000420  -0.000024
    15  H    0.366134  -0.027372  -0.001780   0.003679   0.004610   0.000133
    16  H   -0.043236   0.385974  -0.026397  -0.035518   0.001039   0.000870
    17  H   -0.010087  -0.010926  -0.000579   0.097974   0.000200  -0.000074
    18  H    0.004831  -0.034044  -0.007401   0.320603   0.000226   0.013216
    19  H   -0.000157   0.005356  -0.018920  -0.000116  -0.000720   0.237057
    20  N   -0.111178   0.002794  -0.000073  -0.075637  -0.003580   0.000050
    21  O   -0.067072   0.002581  -0.000434  -0.000164  -0.001635  -0.000001
    22  H   -0.000839  -0.029125   0.004117   0.322133  -0.000080  -0.000003
    23  H    0.003323  -0.000180  -0.000100   0.001435   0.000019   0.000003
              13         14         15         16         17         18
     1  C    0.000000   0.000000   0.000000   0.000001   0.000000  -0.000001
     2  H    0.000000   0.000000   0.000000   0.000000   0.000000   0.000000
     3  H    0.000000   0.000000   0.000000  -0.000002   0.000000   0.000000
     4  H   -0.029891  -0.000347   0.002340   0.000010  -0.000030   0.000000
     5  H    0.000000   0.000000   0.000000   0.000000   0.000000   0.000000
     6  H    0.000000   0.000000   0.000000   0.000000   0.000000   0.000000
     7  C    0.250280   0.376811   0.366134  -0.043236  -0.010087   0.004831
     8  C   -0.015390  -0.027975  -0.027372   0.385974  -0.010926  -0.034044
     9  C   -0.007282   0.005556  -0.001780  -0.026397  -0.000579  -0.007401
    10  N   -0.006619  -0.001433   0.003679  -0.035518   0.097974   0.320603
    11  O    0.012006   0.000420   0.004610   0.001039   0.000200   0.000226
    12  O   -0.000480  -0.000024   0.000133   0.000870  -0.000074   0.013216
    13  C    4.646342  -0.035395  -0.029304   0.004154  -0.018047   0.000203
    14  H   -0.035395   0.436396  -0.015049  -0.003145  -0.000290  -0.000054
    15  H   -0.029304  -0.015049   0.449163  -0.000696   0.000374  -0.000097
    16  H    0.004154  -0.003145  -0.000696   0.455482   0.001006   0.000999
    17  H   -0.018047  -0.000290   0.000374   0.001006   0.250445  -0.000470
    18  H    0.000203  -0.000054  -0.000097   0.000999  -0.000470   0.335702
    19  H   -0.000012   0.000002  -0.000002  -0.000242  -0.000021  -0.000256
    20  N    0.289927  -0.002040   0.004376  -0.000319   0.231699   0.000280
    21  O    0.401278   0.000884  -0.003246  -0.000067   0.000971   0.000002
    22  H   -0.000273   0.001609  -0.000068  -0.003757  -0.001600  -0.020597
    23  H   -0.019724  -0.000122  -0.000063   0.000009  -0.001671  -0.000011
              19         20         21         22         23
     1  C    0.027250   0.000000   0.000000   0.000000   0.000000
     2  H   -0.000954   0.000000   0.000000   0.000000   0.000000
     3  H    0.002071   0.000000   0.000000   0.000000   0.000000
     4  H    0.000000   0.009365   0.350071  -0.000001   0.000158
     5  H    0.005248   0.000000   0.000000   0.000000   0.000000
     6  H    0.004766   0.000000   0.000000   0.000000   0.000000
     7  C   -0.000157  -0.111178  -0.067072  -0.000839   0.003323
     8  C    0.005356   0.002794   0.002581  -0.029125  -0.000180
     9  C   -0.018920  -0.000073  -0.000434   0.004117  -0.000100
    10  N   -0.000116  -0.075637  -0.000164   0.322133   0.001435
    11  O   -0.000720  -0.003580  -0.001635  -0.000080   0.000019
    12  O    0.237057   0.000050  -0.000001  -0.000003   0.000003
    13  C   -0.000012   0.289927   0.401278  -0.000273  -0.019724
    14  H    0.000002  -0.002040   0.000884   0.001609  -0.000122
    15  H   -0.000002   0.004376  -0.003246  -0.000068  -0.000063
    16  H   -0.000242  -0.000319  -0.000067  -0.003757   0.000009
    17  H   -0.000021   0.231699   0.000971  -0.001600  -0.001671
    18  H   -0.000256   0.000280   0.000002  -0.020597  -0.000011
    19  H    0.273875   0.000012   0.000000   0.000016  -0.000001
    20  N    0.000012   7.133197  -0.110624   0.000928   0.306586
    21  O    0.000000  -0.110624   7.667494   0.000002  -0.000826
    22  H    0.000016   0.000928   0.000002   0.368436  -0.000020
    23  H   -0.000001   0.306586  -0.000826  -0.000020   0.288285
 Mulliken charges:
               1
     1  C   -0.698495
     2  H    0.215080
     3  H    0.179945
     4  H    0.158820
     5  H    0.168991
     6  H    0.162003
     7  C   -0.333426
     8  C   -0.111105
     9  C    0.553248
    10  N   -0.794975
    11  O   -0.408848
    12  O   -0.605141
    13  C    0.558227
    14  H    0.264194
    15  H    0.246869
    16  H    0.263832
    17  H    0.461125
    18  H    0.386869
    19  H    0.465748
    20  N   -0.675764
    21  O   -0.239216
    22  H    0.359121
    23  H    0.422897
 Sum of Mulliken charges =   1.00000
 Mulliken charges with hydrogens summed into heavy atoms:
               1
     1  C    0.027523
     7  C    0.177638
     8  C    0.152728
     9  C    0.553248
    10  N   -0.048986
    11  O   -0.408848
    12  O   -0.139393
    13  C    0.558227
    20  N    0.208258
    21  O   -0.080396
 Electronic spatial extent (au):  <R**2>=           1991.8991
 Charge=              1.0000 electrons
 Dipole moment (field-independent basis, Debye):
    X=              4.5418    Y=              2.5201    Z=              0.3483  Tot=              5.2058
 Quadrupole moment (field-independent basis, Debye-Ang):
   XX=            -33.3873   YY=            -49.5414   ZZ=            -48.1651
   XY=              0.4613   XZ=             -2.2514   YZ=             -0.4480
 Traceless Quadrupole moment (field-independent basis, Debye-Ang):
   XX=             10.3106   YY=             -5.8435   ZZ=             -4.4671
   XY=              0.4613   XZ=             -2.2514   YZ=             -0.4480
 Octapole moment (field-independent basis, Debye-Ang**2):
  XXX=            -19.6288  YYY=             19.7196  ZZZ=             12.8883  XYY=             20.0853
  XXY=            -14.8287  XXZ=              1.8731  XZZ=             22.5579  YZZ=             -4.2491
  YYZ=             -1.5226  XYZ=              3.1817
 Hexadecapole moment (field-independent basis, Debye-Ang**3):
 XXXX=          -1418.9018 YYYY=           -434.7385 ZZZZ=           -194.5956 XXXY=             29.4412
 XXXZ=            -24.9622 YYYX=             -6.1115 YYYZ=             29.3899 ZZZX=             30.2061
 ZZZY=             -8.8847 XXYY=           -336.8771 XXZZ=           -291.5497 YYZZ=           -111.7824
 XXYZ=              2.2917 YYXZ=            -16.0568 ZZXY=            -26.5327
 N-N= 5.901407708168D+02 E-N=-2.411948179508D+03  KE= 5.314290402787D+02
 No NMR shielding tensors so no spin-rotation constants.
 Leave Link  601 at Thu Mar 12 19:25:16 2020, MaxMem=    33554432 cpu:         0.1
 (Enter /usr/local/gaussian09d01/g09/l9999.exe)
 1\1\GINC-KARURA\SP\RM062X\6-31G\C5H13N2O3(1+)\RTAKE\12-Mar-2020\0\\#p 
 M062X/6-31G\\chk calc\\1,1\C,0,3.824482709,-1.14219544,1.17225369\H,0,
 4.799113079,-1.62961423,1.173808707\H,0,3.053614027,-1.916312598,1.160
 804944\H,0,-2.458991604,-2.535647542,-1.238653545\H,0,3.75960642,-0.53
 291794,2.07824618\H,0,3.765323683,-0.52154146,0.273951194\C,0,-2.40154
 2122,-0.705499021,0.492562549\C,0,-1.33365594,0.193207044,1.141270536\
 C,0,0.021967089,-0.47033751,0.950186539\N,0,-1.303304814,1.529148773,0
 .515945207\O,0,0.155929117,-1.611462803,0.51692019\O,0,1.024922388,0.3
 53392554,1.298656\C,0,-2.121889445,-0.918337302,-0.967112723\H,0,-3.39
 229932,-0.247402335,0.596496855\H,0,-2.419176945,-1.669900059,1.004436
 439\H,0,-1.526304416,0.239474424,2.221387894\H,0,-1.503902114,0.960750
 702,-1.170400229\H,0,-0.410560182,1.997532273,0.666150752\H,0,1.924402
 159,-0.039925506,1.230818645\N,0,-1.700457396,0.069239192,-1.694919761
 \O,0,-2.336854815,-2.071648312,-1.575178364\H,0,-2.071900591,2.1285565
 43,0.807834339\H,0,-1.514408501,-0.054510917,-2.685235696\\Version=ES6
 4L-G09RevD.01\State=1-A\HF=-532.5232031\RMSD=4.528e-09\Dipole=-1.79423
 81,0.9342642,-0.3204093\Quadrupole=7.2173699,-4.3771851,-2.8401848,0.5
 50582,2.7197612,-0.0744752\PG=C01 [X(C5H13N2O3)]\\@


 SIC AS THE CAWSE OF EWERY THING IS, SIC WILBE THE EFFECT.
 -- PROVERBS AND REASONS OF THE YEAR 1585
           AS REPRINTED IN PAISLEY MAGAZINE 1828.
 Job cpu time:       0 days  0 hours  0 minutes 56.9 seconds.
 File lengths (MBytes):  RWF=      7 Int=      0 D2E=      0 Chk=      2 Scr=      1
 Normal termination of Gaussian 09 at Thu Mar 12 19:25:17 2020.
