 Entering Gaussian System, Link 0=g09
 Input=./h4_o21_11.gjf
 Output=./h4_o21_11.log
 Initial command:
 /usr/local/gaussian09d01/g09/l1.exe "/scr/Gau-22544.inp" -scrdir="/scr/"
 Entering Link 1 = /usr/local/gaussian09d01/g09/l1.exe PID=     22545.
  
 Copyright (c) 1988,1990,1992,1993,1995,1998,2003,2009,2013,
            Gaussian, Inc.  All Rights Reserved.
  
 This is part of the Gaussian(R) 09 program.  It is based on
 the Gaussian(R) 03 system (copyright 2003, Gaussian, Inc.),
 the Gaussian(R) 98 system (copyright 1998, Gaussian, Inc.),
 the Gaussian(R) 94 system (copyright 1995, Gaussian, Inc.),
 the Gaussian 92(TM) system (copyright 1992, Gaussian, Inc.),
 the Gaussian 90(TM) system (copyright 1990, Gaussian, Inc.),
 the Gaussian 88(TM) system (copyright 1988, Gaussian, Inc.),
 the Gaussian 86(TM) system (copyright 1986, Carnegie Mellon
 University), and the Gaussian 82(TM) system (copyright 1983,
 Carnegie Mellon University). Gaussian is a federally registered
 trademark of Gaussian, Inc.
  
 This software contains proprietary and confidential information,
 including trade secrets, belonging to Gaussian, Inc.
  
 This software is provided under written license and may be
 used, copied, transmitted, or stored only in accord with that
 written license.
  
 The following legend is applicable only to US Government
 contracts under FAR:
  
                    RESTRICTED RIGHTS LEGEND
  
 Use, reproduction and disclosure by the US Government is
 subject to restrictions as set forth in subparagraphs (a)
 and (c) of the Commercial Computer Software - Restricted
 Rights clause in FAR 52.227-19.
  
 Gaussian, Inc.
 340 Quinnipiac St., Bldg. 40, Wallingford CT 06492
  
  
 ---------------------------------------------------------------
 Warning -- This program may not be used in any manner that
 competes with the business of Gaussian, Inc. or will provide
 assistance to any competitor of Gaussian, Inc.  The licensee
 of this program is prohibited from giving any competitor of
 Gaussian, Inc. access to this program.  By using this program,
 the user acknowledges that Gaussian, Inc. is engaged in the
 business of creating and licensing software in the field of
 computational chemistry and represents and warrants to the
 licensee that it is not a competitor of Gaussian, Inc. and that
 it will not use this program in any manner prohibited above.
 ---------------------------------------------------------------
  

 Cite this work as:
 Gaussian 09, Revision D.01,
 M. J. Frisch, G. W. Trucks, H. B. Schlegel, G. E. Scuseria, 
 M. A. Robb, J. R. Cheeseman, G. Scalmani, V. Barone, B. Mennucci, 
 G. A. Petersson, H. Nakatsuji, M. Caricato, X. Li, H. P. Hratchian, 
 A. F. Izmaylov, J. Bloino, G. Zheng, J. L. Sonnenberg, M. Hada, 
 M. Ehara, K. Toyota, R. Fukuda, J. Hasegawa, M. Ishida, T. Nakajima, 
 Y. Honda, O. Kitao, H. Nakai, T. Vreven, J. A. Montgomery, Jr., 
 J. E. Peralta, F. Ogliaro, M. Bearpark, J. J. Heyd, E. Brothers, 
 K. N. Kudin, V. N. Staroverov, T. Keith, R. Kobayashi, J. Normand, 
 K. Raghavachari, A. Rendell, J. C. Burant, S. S. Iyengar, J. Tomasi, 
 M. Cossi, N. Rega, J. M. Millam, M. Klene, J. E. Knox, J. B. Cross, 
 V. Bakken, C. Adamo, J. Jaramillo, R. Gomperts, R. E. Stratmann, 
 O. Yazyev, A. J. Austin, R. Cammi, C. Pomelli, J. W. Ochterski, 
 R. L. Martin, K. Morokuma, V. G. Zakrzewski, G. A. Voth, 
 P. Salvador, J. J. Dannenberg, S. Dapprich, A. D. Daniels, 
 O. Farkas, J. B. Foresman, J. V. Ortiz, J. Cioslowski, 
 and D. J. Fox, Gaussian, Inc., Wallingford CT, 2013.
 
 ******************************************
 Gaussian 09:  ES64L-G09RevD.01 24-Apr-2013
                12-Mar-2020 
 ******************************************
 --------------
 #p M062X/6-31G
 --------------
 1/38=1/1;
 2/12=2,17=6,18=5,40=1/2;
 3/5=1,6=6,11=2,16=1,25=1,30=1,74=-55/1,2,3;
 4//1;
 5/5=2,38=5/2;
 6/7=2,8=2,9=2,10=2,28=1/1;
 99/5=1,9=1/99;
 Leave Link    1 at Thu Mar 12 19:29:04 2020, MaxMem=           0 cpu:         0.0
 (Enter /usr/local/gaussian09d01/g09/l101.exe)
 --------
 chk calc
 --------
 Symbolic Z-matrix:
 Charge =  1 Multiplicity = 1
 C                     3.82448  -1.1422    1.17225 
 H                     4.79911  -1.62961   1.17381 
 H                     3.05361  -1.91631   1.1608 
 H                    -2.56077  -2.92231  -0.95822 
 H                     3.75961  -0.53292   2.07825 
 H                     3.76532  -0.52154   0.27395 
 C                    -2.40154  -0.7055    0.49256 
 C                    -1.33366   0.19321   1.14127 
 C                     0.02197  -0.47034   0.95019 
 N                    -1.3033    1.52915   0.51595 
 O                     0.15593  -1.61146   0.51692 
 O                     1.02492   0.35339   1.29866 
 C                    -2.12189  -0.91834  -0.96711 
 H                    -3.3923   -0.2474    0.5965 
 H                    -2.41918  -1.6699    1.00444 
 H                    -1.5263    0.23947   2.22139 
 H                    -1.5039    0.96075  -1.1704 
 H                    -0.41056   1.99753   0.66615 
 H                     1.9244   -0.03993   1.23082 
 N                    -1.70046   0.06924  -1.69492 
 O                    -2.33685  -2.07165  -1.57518 
 H                    -2.0719    2.12856   0.80783 
 H                    -1.51441  -0.05451  -2.68524 
 
 NAtoms=     23 NQM=       23 NQMF=       0 NMMI=      0 NMMIF=      0
                NMic=       0 NMicF=      0.
                    Isotopes and Nuclear Properties:
 (Nuclear quadrupole moments (NQMom) in fm**2, nuclear magnetic moments (NMagM)
  in nuclear magnetons)

  Atom         1           2           3           4           5           6           7           8           9          10
 IAtWgt=          12           1           1           1           1           1          12          12          12          14
 AtmWgt=  12.0000000   1.0078250   1.0078250   1.0078250   1.0078250   1.0078250  12.0000000  12.0000000  12.0000000  14.0030740
 NucSpn=           0           1           1           1           1           1           0           0           0           2
 AtZEff=   0.0000000   0.0000000   0.0000000   0.0000000   0.0000000   0.0000000   0.0000000   0.0000000   0.0000000   0.0000000
 NQMom=    0.0000000   0.0000000   0.0000000   0.0000000   0.0000000   0.0000000   0.0000000   0.0000000   0.0000000   2.0440000
 NMagM=    0.0000000   2.7928460   2.7928460   2.7928460   2.7928460   2.7928460   0.0000000   0.0000000   0.0000000   0.4037610
 AtZNuc=   6.0000000   1.0000000   1.0000000   1.0000000   1.0000000   1.0000000   6.0000000   6.0000000   6.0000000   7.0000000

  Atom        11          12          13          14          15          16          17          18          19          20
 IAtWgt=          16          16          12           1           1           1           1           1           1          14
 AtmWgt=  15.9949146  15.9949146  12.0000000   1.0078250   1.0078250   1.0078250   1.0078250   1.0078250   1.0078250  14.0030740
 NucSpn=           0           0           0           1           1           1           1           1           1           2
 AtZEff=   0.0000000   0.0000000   0.0000000   0.0000000   0.0000000   0.0000000   0.0000000   0.0000000   0.0000000   0.0000000
 NQMom=    0.0000000   0.0000000   0.0000000   0.0000000   0.0000000   0.0000000   0.0000000   0.0000000   0.0000000   2.0440000
 NMagM=    0.0000000   0.0000000   0.0000000   2.7928460   2.7928460   2.7928460   2.7928460   2.7928460   2.7928460   0.4037610
 AtZNuc=   8.0000000   8.0000000   6.0000000   1.0000000   1.0000000   1.0000000   1.0000000   1.0000000   1.0000000   7.0000000

  Atom        21          22          23
 IAtWgt=          16           1           1
 AtmWgt=  15.9949146   1.0078250   1.0078250
 NucSpn=           0           1           1
 AtZEff=   0.0000000   0.0000000   0.0000000
 NQMom=    0.0000000   0.0000000   0.0000000
 NMagM=    0.0000000   2.7928460   2.7928460
 AtZNuc=   8.0000000   1.0000000   1.0000000
 Leave Link  101 at Thu Mar 12 19:29:04 2020, MaxMem=    33554432 cpu:         0.0
 (Enter /usr/local/gaussian09d01/g09/l202.exe)
                          Input orientation:                          
 ---------------------------------------------------------------------
 Center     Atomic      Atomic             Coordinates (Angstroms)
 Number     Number       Type             X           Y           Z
 ---------------------------------------------------------------------
      1          6           0        3.824483   -1.142195    1.172254
      2          1           0        4.799113   -1.629614    1.173809
      3          1           0        3.053614   -1.916313    1.160805
      4          1           0       -2.560772   -2.922314   -0.958216
      5          1           0        3.759606   -0.532918    2.078246
      6          1           0        3.765324   -0.521541    0.273951
      7          6           0       -2.401542   -0.705499    0.492563
      8          6           0       -1.333656    0.193207    1.141271
      9          6           0        0.021967   -0.470338    0.950187
     10          7           0       -1.303305    1.529149    0.515945
     11          8           0        0.155929   -1.611463    0.516920
     12          8           0        1.024922    0.353393    1.298656
     13          6           0       -2.121889   -0.918337   -0.967113
     14          1           0       -3.392299   -0.247402    0.596497
     15          1           0       -2.419177   -1.669900    1.004436
     16          1           0       -1.526304    0.239474    2.221388
     17          1           0       -1.503902    0.960751   -1.170400
     18          1           0       -0.410560    1.997532    0.666151
     19          1           0        1.924402   -0.039926    1.230819
     20          7           0       -1.700457    0.069239   -1.694920
     21          8           0       -2.336855   -2.071648   -1.575178
     22          1           0       -2.071901    2.128557    0.807834
     23          1           0       -1.514409   -0.054511   -2.685236
 ---------------------------------------------------------------------
                    Distance matrix (angstroms):
                    1          2          3          4          5
     1  C    0.000000
     2  H    1.089717   0.000000
     3  H    1.092532   1.768935   0.000000
     4  H    6.962701   7.770747   6.084704   0.000000
     5  H    1.093732   1.761058   1.803858   7.407868   0.000000
     6  H    1.093462   1.762467   1.799563   6.877604   1.804340
     7  C    6.278222   7.291606   5.627730   2.654125   6.364270
     8  C    5.328288   6.398015   4.868120   3.952231   5.229388
     9  C    3.867794   4.920879   3.365425   4.040387   3.904662
    10  N    5.819023   6.902903   5.591940   4.854883   5.685594
    11  O    3.756056   4.689455   2.983974   3.357800   4.072774
    12  O    3.176523   4.265257   3.047319   5.355458   2.978557
    13  C    6.323476   7.279405   5.684173   2.051492   6.634362
    14  H    7.294799   8.327247   6.682328   3.203704   7.309368
    15  H    6.268167   7.220389   5.480567   2.332508   6.373630
    16  H    5.624999   6.678459   5.171838   4.601838   5.343962
    17  H    6.188869   7.206477   5.872220   4.029911   6.363118
    18  H    5.296189   6.368250   5.250083   5.609533   5.078138
    19  H    2.197438   3.285472   2.191084   5.763404   2.080661
    20  N    6.341389   7.304801   5.890567   3.198791   6.664208
    21  O    6.809871   7.659919   6.047056   1.074436   7.272004
    22  H    6.752626   7.840192   6.538842   5.373008   6.534820
    23  H    6.675855   7.565298   6.255011   3.507387   7.122841
                    6          7          8          9         10
     6  H    0.000000
     7  C    6.173481   0.000000
     8  C    5.221370   1.539115   0.000000
     9  C    3.804292   2.477522   1.521354   0.000000
    10  N    5.473106   2.490045   1.475362   2.437797   0.000000
    11  O    3.778186   2.713305   2.421882   1.227938   3.463063
    12  O    3.053740   3.675826   2.369245   1.343831   2.723175
    13  C    6.029674   1.501385   2.510403   2.910818   2.976530
    14  H    7.170129   1.096474   2.174610   3.439769   2.743450
    15  H    6.332486   1.091969   2.160613   2.720492   3.423114
    16  H    5.689726   2.155888   1.098138   2.125307   2.149773
    17  H    5.661103   2.519443   2.441706   2.978788   1.790831
    18  H    4.892602   3.361625   2.081690   2.521535   1.019283
    19  H    2.129916   4.438671   3.267616   1.970601   3.659389
    20  N    5.839541   2.424215   2.862497   3.202261   2.678990
    21  O    6.561912   2.479133   3.676285   3.808636   4.290310
    22  H    6.432825   2.870528   2.098038   3.340478   1.017462
    23  H    6.070459   3.362914   3.838774   3.968584   3.577723
                   11         12         13         14         15
    11  O    0.000000
    12  O    2.286245   0.000000
    13  C    2.805572   4.080861   0.000000
    14  H    3.802225   4.512852   2.123434   0.000000
    15  H    2.621499   4.005259   2.130782   1.771124   0.000000
    16  H    3.026729   2.715358   3.444094   2.521757   2.433907
    17  H    3.495479   3.586095   1.988519   2.854401   3.533832
    18  H    3.656231   2.272415   3.754796   3.733008   4.195121
    19  H    2.471210   0.984055   4.687748   5.358426   4.644862
    20  N    3.341132   4.058317   1.297157   2.865865   3.290545
    21  O    3.286734   5.043936   1.321393   3.026220   2.612009
    22  H    4.362981   3.603113   3.526542   2.726407   3.819362
    23  H    3.932929   4.741938   2.016724   3.785954   4.128168
                   16         17         18         19         20
    16  H    0.000000
    17  H    3.467704   0.000000
    18  H    2.598926   2.375549   0.000000
    19  H    3.600926   4.303542   3.149942   0.000000
    20  N    3.923872   1.052876   3.310106   4.659557   0.000000
    21  O    4.517986   3.170662   5.029155   5.491796   2.236680
    22  H    2.421661   2.366391   1.672511   4.566362   3.262290
    23  H    4.915437   1.823621   4.081808   5.211632   1.015211
                   21         22         23
    21  O    0.000000
    22  H    4.836390   0.000000
    23  H    2.444890   4.156696   0.000000
 Stoichiometry    C5H13N2O3(1+)
 Framework group  C1[X(C5H13N2O3)]
 Deg. of freedom    63
 Full point group                 C1      NOp   1
 Largest Abelian subgroup         C1      NOp   1
 Largest concise Abelian subgroup C1      NOp   1
                         Standard orientation:                         
 ---------------------------------------------------------------------
 Center     Atomic      Atomic             Coordinates (Angstroms)
 Number     Number       Type             X           Y           Z
 ---------------------------------------------------------------------
      1          6           0       -4.368742   -0.943201    0.322375
      2          1           0       -5.272769   -1.546444    0.401856
      3          1           0       -3.653882   -1.477527   -0.307783
      4          1           0        2.341137   -2.284791   -0.964816
      5          1           0       -4.650364    0.014822   -0.123867
      6          1           0       -3.970991   -0.806898    1.331768
      7          6           0        1.651061    0.278028   -0.976333
      8          6           0        0.420029    1.158754   -0.697480
      9          6           0       -0.764015    0.243255   -0.424681
     10          7           0        0.633880    2.025091    0.477433
     11          8           0       -0.727537   -0.971712   -0.598914
     12          8           0       -1.821310    0.932732    0.036436
     13          6           0        1.945441   -0.630531    0.182122
     14          1           0        2.529879    0.907364   -1.160368
     15          1           0        1.469788   -0.320334   -1.871598
     16          1           0        0.188591    1.731849   -1.605173
     17          1           0        1.457360    0.792600    1.482383
     18          1           0       -0.247457    2.335252    0.884843
     19          1           0       -2.629148    0.393183    0.193434
     20          7           0        1.835131   -0.186353    1.395857
     21          8           0        2.371033   -1.871810    0.026630
     22          1           0        1.236327    2.822412    0.286218
     23          1           0        2.038331   -0.784154    2.190839
 ---------------------------------------------------------------------
 Rotational constants (GHZ):      1.8002833      0.7173765      0.6060622
 Leave Link  202 at Thu Mar 12 19:29:04 2020, MaxMem=    33554432 cpu:         0.0
 (Enter /usr/local/gaussian09d01/g09/l301.exe)
 Standard basis: 6-31G (6D, 7F)
 Ernie: Thresh=  0.10000D-02 Tol=  0.10000D-05 Strict=F.
 There are   116 symmetry adapted cartesian basis functions of A   symmetry.
 There are   116 symmetry adapted basis functions of A   symmetry.
   116 basis functions,   272 primitive gaussians,   116 cartesian basis functions
    40 alpha electrons       40 beta electrons
       nuclear repulsion energy       586.0304253977 Hartrees.
 IExCor= 4336 DFT=T Ex+Corr=M062X ExCW=0 ScaHFX=  0.540000
 ScaDFX=  1.000000  1.000000  1.000000  1.000000 ScalE2=  1.000000  1.000000
 IRadAn=      0 IRanWt=     -1 IRanGd=            0 ICorTp=0 IEmpDi=  4
 NAtoms=   23 NActive=   23 NUniq=   23 SFac= 1.00D+00 NAtFMM=   60 NAOKFM=F Big=F
 Integral buffers will be    131072 words long.
 Raffenetti 2 integral format.
 Two-electron integral symmetry is turned on.
 Leave Link  301 at Thu Mar 12 19:29:04 2020, MaxMem=    33554432 cpu:         0.0
 (Enter /usr/local/gaussian09d01/g09/l302.exe)
 NPDir=0 NMtPBC=     1 NCelOv=     1 NCel=       1 NClECP=     1 NCelD=      1
         NCelK=      1 NCelE2=     1 NClLst=     1 CellRange=     0.0.
 One-electron integrals computed using PRISM.
 NBasis=   116 RedAO= T EigKep=  3.52D-03  NBF=   116
 NBsUse=   116 1.00D-06 EigRej= -1.00D+00 NBFU=   116
 Precomputing XC quadrature grid using
 IXCGrd= 4 IRadAn=           0 IRanWt=          -1 IRanGd=           0 AccXCQ= 0.00D+00.
 Generated NRdTot=       0 NPtTot=           0 NUsed=           0 NTot=          32
 NSgBfM=   115   115   115   115   115 MxSgAt=    23 MxSgA2=    23.
 Leave Link  302 at Thu Mar 12 19:29:04 2020, MaxMem=    33554432 cpu:         0.3
 (Enter /usr/local/gaussian09d01/g09/l303.exe)
 DipDrv:  MaxL=1.
 Leave Link  303 at Thu Mar 12 19:29:04 2020, MaxMem=    33554432 cpu:         0.0
 (Enter /usr/local/gaussian09d01/g09/l401.exe)
 ExpMin= 1.61D-01 ExpMax= 5.48D+03 ExpMxC= 8.25D+02 IAcc=1 IRadAn=         1 AccDes= 0.00D+00
 Harris functional with IExCor= 1009 and IRadAn=       1 diagonalized for initial guess.
 HarFok:  IExCor= 1009 AccDes= 0.00D+00 IRadAn=         1 IDoV= 1 UseB2=F ITyADJ=14
 ICtDFT=  3500011 ScaDFX=  1.000000  1.000000  1.000000  1.000000
 FoFCou: FMM=F IPFlag=           0 FMFlag=      100000 FMFlg1=           0
         NFxFlg=           0 DoJE=T BraDBF=F KetDBF=T FulRan=T
         wScrn=  0.000000 ICntrl=     500 IOpCl=  0 I1Cent=   200000004 NGrid=           0
         NMat0=    1 NMatS0=      1 NMatT0=    0 NMatD0=    1 NMtDS0=    0 NMtDT0=    0
 Petite list used in FoFCou.
 Harris En= -532.736608950473    
 JPrj=0 DoOrth=F DoCkMO=F.
 Leave Link  401 at Thu Mar 12 19:29:05 2020, MaxMem=    33554432 cpu:         0.8
 (Enter /usr/local/gaussian09d01/g09/l502.exe)
 Closed shell SCF:
 Using DIIS extrapolation, IDIIS=  1040.
 Integral symmetry usage will be decided dynamically.
 Keep R1 ints in memory in canonical form, NReq=24030401.
 IVT=       60528 IEndB=       60528 NGot=    33554432 MDV=    10465614
 LenX=    10465614 LenY=    10451717
 Requested convergence on RMS density matrix=1.00D-08 within 128 cycles.
 Requested convergence on MAX density matrix=1.00D-06.
 Requested convergence on             energy=1.00D-06.
 No special actions if energy rises.
 FoFCou: FMM=F IPFlag=           0 FMFlag=           0 FMFlg1=           0
         NFxFlg=           0 DoJE=F BraDBF=F KetDBF=F FulRan=T
         wScrn=  0.000000 ICntrl=     600 IOpCl=  0 I1Cent=           0 NGrid=           0
         NMat0=    1 NMatS0=   6786 NMatT0=    0 NMatD0=    1 NMtDS0=    0 NMtDT0=    0
 Symmetry not used in FoFCou.
 Integral accuracy reduced to 1.0D-05 until final iterations.

 Cycle   1  Pass 0  IDiag  1:
 E= -532.649460575246    
 DIIS: error= 5.31D-02 at cycle   1 NSaved=   1.
 NSaved= 1 IEnMin= 1 EnMin= -532.649460575246     IErMin= 1 ErrMin= 5.31D-02
 ErrMax= 5.31D-02  0.00D+00 EMaxC= 1.00D-01 BMatC= 3.12D-01 BMatP= 3.12D-01
 IDIUse=3 WtCom= 4.69D-01 WtEn= 5.31D-01
 Coeff-Com:  0.100D+01
 Coeff-En:   0.100D+01
 Coeff:      0.100D+01
 Gap=     0.300 Goal=   None    Shift=    0.000
 GapD=    0.300 DampG=1.000 DampE=0.500 DampFc=0.5000 IDamp=-1.
 Damping current iteration by 5.00D-01
 RMSDP=8.32D-03 MaxDP=1.64D-01              OVMax= 1.77D-01

 Cycle   2  Pass 0  IDiag  1:
 E= -532.774689035906     Delta-E=       -0.125228460660 Rises=F Damp=T
 DIIS: error= 1.06D-02 at cycle   2 NSaved=   2.
 NSaved= 2 IEnMin= 2 EnMin= -532.774689035906     IErMin= 2 ErrMin= 1.06D-02
 ErrMax= 1.06D-02  0.00D+00 EMaxC= 1.00D-01 BMatC= 1.88D-02 BMatP= 3.12D-01
 IDIUse=3 WtCom= 8.94D-01 WtEn= 1.06D-01
 Coeff-Com:  0.316D-01 0.968D+00
 Coeff-En:   0.340D-01 0.966D+00
 Coeff:      0.319D-01 0.968D+00
 Gap=     0.362 Goal=   None    Shift=    0.000
 RMSDP=2.12D-03 MaxDP=3.46D-02 DE=-1.25D-01 OVMax= 1.09D-01

 Cycle   3  Pass 0  IDiag  1:
 E= -532.904019497378     Delta-E=       -0.129330461471 Rises=F Damp=F
 DIIS: error= 1.21D-02 at cycle   3 NSaved=   3.
 NSaved= 3 IEnMin= 3 EnMin= -532.904019497378     IErMin= 2 ErrMin= 1.06D-02
 ErrMax= 1.21D-02  0.00D+00 EMaxC= 1.00D-01 BMatC= 1.49D-02 BMatP= 1.88D-02
 IDIUse=3 WtCom= 8.79D-01 WtEn= 1.21D-01
 Coeff-Com: -0.242D-01 0.474D+00 0.550D+00
 Coeff-En:   0.000D+00 0.000D+00 0.100D+01
 Coeff:     -0.213D-01 0.417D+00 0.604D+00
 Gap=     0.335 Goal=   None    Shift=    0.000
 RMSDP=1.39D-03 MaxDP=3.64D-02 DE=-1.29D-01 OVMax= 5.66D-02

 Cycle   4  Pass 0  IDiag  1:
 E= -532.913593691780     Delta-E=       -0.009574194402 Rises=F Damp=F
 DIIS: error= 7.68D-03 at cycle   4 NSaved=   4.
 NSaved= 4 IEnMin= 4 EnMin= -532.913593691780     IErMin= 4 ErrMin= 7.68D-03
 ErrMax= 7.68D-03  0.00D+00 EMaxC= 1.00D-01 BMatC= 3.75D-03 BMatP= 1.49D-02
 IDIUse=3 WtCom= 9.23D-01 WtEn= 7.68D-02
 Coeff-Com: -0.681D-02 0.357D-01 0.340D+00 0.632D+00
 Coeff-En:   0.000D+00 0.000D+00 0.199D+00 0.801D+00
 Coeff:     -0.629D-02 0.330D-01 0.329D+00 0.645D+00
 Gap=     0.333 Goal=   None    Shift=    0.000
 RMSDP=5.34D-04 MaxDP=1.15D-02 DE=-9.57D-03 OVMax= 1.86D-02

 Cycle   5  Pass 0  IDiag  1:
 E= -532.916295858585     Delta-E=       -0.002702166805 Rises=F Damp=F
 DIIS: error= 1.18D-03 at cycle   5 NSaved=   5.
 NSaved= 5 IEnMin= 5 EnMin= -532.916295858585     IErMin= 5 ErrMin= 1.18D-03
 ErrMax= 1.18D-03  0.00D+00 EMaxC= 1.00D-01 BMatC= 1.66D-04 BMatP= 3.75D-03
 IDIUse=3 WtCom= 9.88D-01 WtEn= 1.18D-02
 Coeff-Com: -0.992D-03-0.738D-02 0.143D+00 0.333D+00 0.532D+00
 Coeff-En:   0.000D+00 0.000D+00 0.000D+00 0.000D+00 0.100D+01
 Coeff:     -0.980D-03-0.729D-02 0.142D+00 0.329D+00 0.537D+00
 Gap=     0.330 Goal=   None    Shift=    0.000
 RMSDP=1.08D-04 MaxDP=2.15D-03 DE=-2.70D-03 OVMax= 3.71D-03

 Cycle   6  Pass 0  IDiag  1:
 E= -532.916441795782     Delta-E=       -0.000145937197 Rises=F Damp=F
 DIIS: error= 2.88D-04 at cycle   6 NSaved=   6.
 NSaved= 6 IEnMin= 6 EnMin= -532.916441795782     IErMin= 6 ErrMin= 2.88D-04
 ErrMax= 2.88D-04  0.00D+00 EMaxC= 1.00D-01 BMatC= 4.28D-06 BMatP= 1.66D-04
 IDIUse=3 WtCom= 9.97D-01 WtEn= 2.88D-03
 Coeff-Com:  0.583D-03-0.385D-02 0.163D-01 0.309D-01 0.133D+00 0.823D+00
 Coeff-En:   0.000D+00 0.000D+00 0.000D+00 0.000D+00 0.000D+00 0.100D+01
 Coeff:      0.582D-03-0.384D-02 0.162D-01 0.308D-01 0.133D+00 0.823D+00
 Gap=     0.331 Goal=   None    Shift=    0.000
 RMSDP=2.69D-05 MaxDP=3.97D-04 DE=-1.46D-04 OVMax= 5.69D-04

 Cycle   7  Pass 0  IDiag  1:
 E= -532.916445890533     Delta-E=       -0.000004094751 Rises=F Damp=F
 DIIS: error= 9.09D-05 at cycle   7 NSaved=   7.
 NSaved= 7 IEnMin= 7 EnMin= -532.916445890533     IErMin= 7 ErrMin= 9.09D-05
 ErrMax= 9.09D-05  0.00D+00 EMaxC= 1.00D-01 BMatC= 5.37D-07 BMatP= 4.28D-06
 IDIUse=1 WtCom= 1.00D+00 WtEn= 0.00D+00
 Coeff-Com:  0.437D-03-0.619D-03-0.127D-01-0.360D-01-0.203D-01 0.270D+00
 Coeff-Com:  0.799D+00
 Coeff:      0.437D-03-0.619D-03-0.127D-01-0.360D-01-0.203D-01 0.270D+00
 Coeff:      0.799D+00
 Gap=     0.331 Goal=   None    Shift=    0.000
 RMSDP=1.29D-05 MaxDP=2.19D-04 DE=-4.09D-06 OVMax= 3.07D-04

 Cycle   8  Pass 0  IDiag  1:
 E= -532.916446531473     Delta-E=       -0.000000640941 Rises=F Damp=F
 DIIS: error= 2.49D-05 at cycle   8 NSaved=   8.
 NSaved= 8 IEnMin= 8 EnMin= -532.916446531473     IErMin= 8 ErrMin= 2.49D-05
 ErrMax= 2.49D-05  0.00D+00 EMaxC= 1.00D-01 BMatC= 5.12D-08 BMatP= 5.37D-07
 IDIUse=1 WtCom= 1.00D+00 WtEn= 0.00D+00
 Coeff-Com:  0.108D-03 0.103D-03-0.510D-02-0.143D-01-0.176D-01 0.817D-02
 Coeff-Com:  0.267D+00 0.761D+00
 Coeff:      0.108D-03 0.103D-03-0.510D-02-0.143D-01-0.176D-01 0.817D-02
 Coeff:      0.267D+00 0.761D+00
 Gap=     0.331 Goal=   None    Shift=    0.000
 RMSDP=3.49D-06 MaxDP=5.06D-05 DE=-6.41D-07 OVMax= 9.57D-05

 Initial convergence to 1.0D-05 achieved.  Increase integral accuracy.
 Cycle   9  Pass 1  IDiag  1:
 E= -532.916710516530     Delta-E=       -0.000263985057 Rises=F Damp=F
 DIIS: error= 1.32D-04 at cycle   1 NSaved=   1.
 NSaved= 1 IEnMin= 1 EnMin= -532.916710516530     IErMin= 1 ErrMin= 1.32D-04
 ErrMax= 1.32D-04  0.00D+00 EMaxC= 1.00D-01 BMatC= 1.79D-06 BMatP= 1.79D-06
 IDIUse=3 WtCom= 9.99D-01 WtEn= 1.32D-03
 Coeff-Com:  0.100D+01
 Coeff-En:   0.100D+01
 Coeff:      0.100D+01
 Gap=     0.331 Goal=   None    Shift=    0.000
 RMSDP=3.49D-06 MaxDP=5.06D-05 DE=-2.64D-04 OVMax= 1.99D-04

 Cycle  10  Pass 1  IDiag  1:
 E= -532.916712186543     Delta-E=       -0.000001670013 Rises=F Damp=F
 DIIS: error= 7.08D-05 at cycle   2 NSaved=   2.
 NSaved= 2 IEnMin= 2 EnMin= -532.916712186543     IErMin= 2 ErrMin= 7.08D-05
 ErrMax= 7.08D-05  0.00D+00 EMaxC= 1.00D-01 BMatC= 3.24D-07 BMatP= 1.79D-06
 IDIUse=1 WtCom= 1.00D+00 WtEn= 0.00D+00
 Coeff-Com:  0.218D+00 0.782D+00
 Coeff:      0.218D+00 0.782D+00
 Gap=     0.331 Goal=   None    Shift=    0.000
 RMSDP=7.04D-06 MaxDP=1.36D-04 DE=-1.67D-06 OVMax= 1.49D-04

 Cycle  11  Pass 1  IDiag  1:
 E= -532.916712430253     Delta-E=       -0.000000243710 Rises=F Damp=F
 DIIS: error= 3.04D-05 at cycle   3 NSaved=   3.
 NSaved= 3 IEnMin= 3 EnMin= -532.916712430253     IErMin= 3 ErrMin= 3.04D-05
 ErrMax= 3.04D-05  0.00D+00 EMaxC= 1.00D-01 BMatC= 1.14D-07 BMatP= 3.24D-07
 IDIUse=1 WtCom= 1.00D+00 WtEn= 0.00D+00
 Coeff-Com: -0.356D-01 0.355D+00 0.681D+00
 Coeff:     -0.356D-01 0.355D+00 0.681D+00
 Gap=     0.331 Goal=   None    Shift=    0.000
 RMSDP=3.27D-06 MaxDP=7.24D-05 DE=-2.44D-07 OVMax= 8.30D-05

 Cycle  12  Pass 1  IDiag  1:
 E= -532.916712525722     Delta-E=       -0.000000095469 Rises=F Damp=F
 DIIS: error= 9.70D-06 at cycle   4 NSaved=   4.
 NSaved= 4 IEnMin= 4 EnMin= -532.916712525722     IErMin= 4 ErrMin= 9.70D-06
 ErrMax= 9.70D-06  0.00D+00 EMaxC= 1.00D-01 BMatC= 1.08D-08 BMatP= 1.14D-07
 IDIUse=1 WtCom= 1.00D+00 WtEn= 0.00D+00
 Coeff-Com: -0.307D-01 0.155D+00 0.363D+00 0.513D+00
 Coeff:     -0.307D-01 0.155D+00 0.363D+00 0.513D+00
 Gap=     0.331 Goal=   None    Shift=    0.000
 RMSDP=8.12D-07 MaxDP=1.76D-05 DE=-9.55D-08 OVMax= 2.95D-05

 Cycle  13  Pass 1  IDiag  1:
 E= -532.916712534546     Delta-E=       -0.000000008824 Rises=F Damp=F
 DIIS: error= 2.32D-06 at cycle   5 NSaved=   5.
 NSaved= 5 IEnMin= 5 EnMin= -532.916712534546     IErMin= 5 ErrMin= 2.32D-06
 ErrMax= 2.32D-06  0.00D+00 EMaxC= 1.00D-01 BMatC= 3.45D-10 BMatP= 1.08D-08
 IDIUse=1 WtCom= 1.00D+00 WtEn= 0.00D+00
 Coeff-Com: -0.468D-02 0.453D-02 0.229D-01 0.141D+00 0.837D+00
 Coeff:     -0.468D-02 0.453D-02 0.229D-01 0.141D+00 0.837D+00
 Gap=     0.331 Goal=   None    Shift=    0.000
 RMSDP=3.07D-07 MaxDP=5.43D-06 DE=-8.82D-09 OVMax= 7.18D-06

 Cycle  14  Pass 1  IDiag  1:
 E= -532.916712534802     Delta-E=       -0.000000000256 Rises=F Damp=F
 DIIS: error= 1.60D-06 at cycle   6 NSaved=   6.
 NSaved= 6 IEnMin= 6 EnMin= -532.916712534802     IErMin= 6 ErrMin= 1.60D-06
 ErrMax= 1.60D-06  0.00D+00 EMaxC= 1.00D-01 BMatC= 1.71D-10 BMatP= 3.45D-10
 IDIUse=1 WtCom= 1.00D+00 WtEn= 0.00D+00
 Coeff-Com:  0.175D-02-0.187D-01-0.375D-01 0.161D-01 0.497D+00 0.542D+00
 Coeff:      0.175D-02-0.187D-01-0.375D-01 0.161D-01 0.497D+00 0.542D+00
 Gap=     0.331 Goal=   None    Shift=    0.000
 RMSDP=1.06D-07 MaxDP=2.92D-06 DE=-2.56D-10 OVMax= 5.39D-06

 Cycle  15  Pass 1  IDiag  1:
 E= -532.916712534951     Delta-E=       -0.000000000149 Rises=F Damp=F
 DIIS: error= 3.61D-07 at cycle   7 NSaved=   7.
 NSaved= 7 IEnMin= 7 EnMin= -532.916712534951     IErMin= 7 ErrMin= 3.61D-07
 ErrMax= 3.61D-07  0.00D+00 EMaxC= 1.00D-01 BMatC= 6.91D-12 BMatP= 1.71D-10
 IDIUse=1 WtCom= 1.00D+00 WtEn= 0.00D+00
 Coeff-Com:  0.884D-03-0.611D-02-0.137D-01-0.493D-02 0.723D-01 0.195D+00
 Coeff-Com:  0.757D+00
 Coeff:      0.884D-03-0.611D-02-0.137D-01-0.493D-02 0.723D-01 0.195D+00
 Coeff:      0.757D+00
 Gap=     0.331 Goal=   None    Shift=    0.000
 RMSDP=4.05D-08 MaxDP=7.71D-07 DE=-1.49D-10 OVMax= 1.01D-06

 Cycle  16  Pass 1  IDiag  1:
 E= -532.916712534945     Delta-E=        0.000000000006 Rises=F Damp=F
 DIIS: error= 7.13D-08 at cycle   8 NSaved=   8.
 NSaved= 8 IEnMin= 7 EnMin= -532.916712534951     IErMin= 8 ErrMin= 7.13D-08
 ErrMax= 7.13D-08  0.00D+00 EMaxC= 1.00D-01 BMatC= 1.38D-12 BMatP= 6.91D-12
 IDIUse=1 WtCom= 1.00D+00 WtEn= 0.00D+00
 Coeff-Com:  0.151D-03 0.731D-04-0.623D-03-0.464D-02-0.508D-01 0.148D-01
 Coeff-Com:  0.370D+00 0.671D+00
 Coeff:      0.151D-03 0.731D-04-0.623D-03-0.464D-02-0.508D-01 0.148D-01
 Coeff:      0.370D+00 0.671D+00
 Gap=     0.331 Goal=   None    Shift=    0.000
 RMSDP=1.42D-08 MaxDP=2.87D-07 DE= 6.37D-12 OVMax= 4.13D-07

 Cycle  17  Pass 1  IDiag  1:
 E= -532.916712534958     Delta-E=       -0.000000000013 Rises=F Damp=F
 DIIS: error= 3.24D-08 at cycle   9 NSaved=   9.
 NSaved= 9 IEnMin= 9 EnMin= -532.916712534958     IErMin= 9 ErrMin= 3.24D-08
 ErrMax= 3.24D-08  0.00D+00 EMaxC= 1.00D-01 BMatC= 8.95D-14 BMatP= 1.38D-12
 IDIUse=1 WtCom= 1.00D+00 WtEn= 0.00D+00
 Coeff-Com: -0.411D-04 0.629D-03 0.118D-02-0.801D-03-0.238D-01-0.121D-01
 Coeff-Com:  0.320D-01 0.211D+00 0.792D+00
 Coeff:     -0.411D-04 0.629D-03 0.118D-02-0.801D-03-0.238D-01-0.121D-01
 Coeff:      0.320D-01 0.211D+00 0.792D+00
 Gap=     0.331 Goal=   None    Shift=    0.000
 RMSDP=4.92D-09 MaxDP=8.86D-08 DE=-1.32D-11 OVMax= 2.03D-07

 SCF Done:  E(RM062X) =  -532.916712535     A.U. after   17 cycles
            NFock= 17  Conv=0.49D-08     -V/T= 2.0058
 KE= 5.298604914666D+02 PE=-2.404099795870D+03 EE= 7.552921664711D+02
 Leave Link  502 at Thu Mar 12 19:30:00 2020, MaxMem=    33554432 cpu:        55.2
 (Enter /usr/local/gaussian09d01/g09/l601.exe)
 Copying SCF densities to generalized density rwf, IOpCl= 0 IROHF=0.

 **********************************************************************

            Population analysis using the SCF density.

 **********************************************************************

 Orbital symmetries:
       Occupied  (A) (A) (A) (A) (A) (A) (A) (A) (A) (A) (A) (A)
                 (A) (A) (A) (A) (A) (A) (A) (A) (A) (A) (A) (A)
                 (A) (A) (A) (A) (A) (A) (A) (A) (A) (A) (A) (A)
                 (A) (A) (A) (A)
       Virtual   (A) (A) (A) (A) (A) (A) (A) (A) (A) (A) (A) (A)
                 (A) (A) (A) (A) (A) (A) (A) (A) (A) (A) (A) (A)
                 (A) (A) (A) (A) (A) (A) (A) (A) (A) (A) (A) (A)
                 (A) (A) (A) (A) (A) (A) (A) (A) (A) (A) (A) (A)
                 (A) (A) (A) (A) (A) (A) (A) (A) (A) (A) (A) (A)
                 (A) (A) (A) (A) (A) (A) (A) (A) (A) (A) (A) (A)
                 (A) (A) (A) (A)
 The electronic state is 1-A.
 Alpha  occ. eigenvalues --  -19.89092 -19.84052 -19.80541 -14.98590 -14.92879
 Alpha  occ. eigenvalues --  -10.89505 -10.86182 -10.77919 -10.75440 -10.63071
 Alpha  occ. eigenvalues --   -1.41748  -1.40252  -1.31252  -1.25088  -1.18354
 Alpha  occ. eigenvalues --   -1.06351  -0.96776  -0.91784  -0.89971  -0.86520
 Alpha  occ. eigenvalues --   -0.84030  -0.79176  -0.76824  -0.74014  -0.73416
 Alpha  occ. eigenvalues --   -0.72742  -0.72196  -0.69165  -0.66290  -0.64623
 Alpha  occ. eigenvalues --   -0.63683  -0.61622  -0.60651  -0.57085  -0.56868
 Alpha  occ. eigenvalues --   -0.56232  -0.55924  -0.54154  -0.51597  -0.49290
 Alpha virt. eigenvalues --   -0.16222  -0.12248  -0.09735  -0.03427  -0.01129
 Alpha virt. eigenvalues --   -0.00540   0.01026   0.01715   0.04483   0.05035
 Alpha virt. eigenvalues --    0.06610   0.07414   0.07960   0.10420   0.11100
 Alpha virt. eigenvalues --    0.11265   0.12266   0.12962   0.16064   0.18627
 Alpha virt. eigenvalues --    0.20360   0.23812   0.27936   0.38852   0.41551
 Alpha virt. eigenvalues --    0.43165   0.45948   0.46462   0.48181   0.48211
 Alpha virt. eigenvalues --    0.49723   0.51843   0.52054   0.54820   0.58150
 Alpha virt. eigenvalues --    0.58486   0.59510   0.63095   0.64023   0.65909
 Alpha virt. eigenvalues --    0.67804   0.70677   0.71821   0.75280   0.76806
 Alpha virt. eigenvalues --    0.78351   0.79104   0.80800   0.83456   0.84207
 Alpha virt. eigenvalues --    0.86091   0.87300   0.87871   0.88172   0.89640
 Alpha virt. eigenvalues --    0.92070   0.92389   0.94572   0.95175   0.96618
 Alpha virt. eigenvalues --    1.02361   1.04070   1.09015   1.11195   1.12357
 Alpha virt. eigenvalues --    1.15583   1.19224   1.28726   1.29957   1.33714
 Alpha virt. eigenvalues --    1.42307   1.54135   1.63712   1.76272   1.76909
 Alpha virt. eigenvalues --    1.86806
          Condensed to atoms (all electrons):
               1          2          3          4          5          6
     1  C    5.189263   0.375496   0.371670   0.000000   0.370188   0.370825
     2  H    0.375496   0.468966  -0.017933   0.000000  -0.019806  -0.020236
     3  H    0.371670  -0.017933   0.521227   0.000000  -0.029571  -0.030145
     4  H    0.000000   0.000000   0.000000   0.288515   0.000000   0.000000
     5  H    0.370188  -0.019806  -0.029571   0.000000   0.538169  -0.032242
     6  H    0.370825  -0.020236  -0.030145   0.000000  -0.032242   0.545219
     7  C    0.000000   0.000000  -0.000001  -0.006193   0.000000   0.000000
     8  C   -0.000004   0.000001   0.000083   0.000203  -0.000011  -0.000007
     9  C    0.000274   0.000037   0.001481   0.000044  -0.000154  -0.000131
    10  N    0.000000   0.000000  -0.000001   0.000020   0.000000   0.000000
    11  O   -0.001307   0.000015   0.003271   0.000321   0.000043   0.000016
    12  O   -0.005256   0.000175  -0.001619   0.000000  -0.000764  -0.000633
    13  C    0.000000   0.000000   0.000000  -0.014889   0.000000   0.000000
    14  H    0.000000   0.000000   0.000000   0.000094   0.000000   0.000000
    15  H    0.000000   0.000000   0.000000   0.004015   0.000000   0.000000
    16  H    0.000001   0.000000  -0.000002   0.000001   0.000000   0.000000
    17  H    0.000000   0.000000   0.000000  -0.000025   0.000000   0.000000
    18  H   -0.000001   0.000000   0.000000   0.000000   0.000000   0.000000
    19  H    0.027013  -0.000942   0.002071   0.000000   0.005198   0.004719
    20  N    0.000000   0.000000   0.000000   0.005444   0.000000   0.000000
    21  O    0.000000   0.000000   0.000000   0.238555   0.000000   0.000000
    22  H    0.000000   0.000000   0.000000   0.000000   0.000000   0.000000
    23  H    0.000000   0.000000   0.000000  -0.000060   0.000000   0.000000
               7          8          9         10         11         12
     1  C    0.000000  -0.000004   0.000274   0.000000  -0.001307  -0.005256
     2  H    0.000000   0.000001   0.000037   0.000000   0.000015   0.000175
     3  H   -0.000001   0.000083   0.001481  -0.000001   0.003271  -0.001619
     4  H   -0.006193   0.000203   0.000044   0.000020   0.000321   0.000000
     5  H    0.000000  -0.000011  -0.000154   0.000000   0.000043  -0.000764
     6  H    0.000000  -0.000007  -0.000131   0.000000   0.000016  -0.000633
     7  C    5.427779   0.216784  -0.048163  -0.073444   0.007913   0.005372
     8  C    0.216784   5.569881   0.151661   0.193437  -0.124289  -0.148150
     9  C   -0.048163   0.151661   4.754029  -0.049358   0.494990   0.195770
    10  N   -0.073444   0.193437  -0.049358   7.095262   0.002200   0.001777
    11  O    0.007913  -0.124289   0.494990   0.002200   8.124835  -0.108518
    12  O    0.005372  -0.148150   0.195770   0.001777  -0.108518   8.416931
    13  C    0.262943  -0.016734  -0.007575  -0.007107   0.011201  -0.000524
    14  H    0.376118  -0.027586   0.005598  -0.001464   0.000417  -0.000026
    15  H    0.367805  -0.027479  -0.002001   0.003805   0.004686   0.000130
    16  H   -0.043427   0.385582  -0.026972  -0.035815   0.001077   0.000902
    17  H   -0.010389  -0.010902  -0.000597   0.095567   0.000197  -0.000074
    18  H    0.004844  -0.034199  -0.007467   0.320789   0.000224   0.013171
    19  H   -0.000158   0.005410  -0.018775  -0.000118  -0.000660   0.236992
    20  N   -0.097498   0.004048   0.000200  -0.075549  -0.003457   0.000054
    21  O   -0.060828   0.002721  -0.000534  -0.000164  -0.001629  -0.000001
    22  H   -0.000907  -0.029161   0.004137   0.322195  -0.000080  -0.000003
    23  H    0.003733  -0.000220  -0.000101   0.001474   0.000024   0.000003
              13         14         15         16         17         18
     1  C    0.000000   0.000000   0.000000   0.000001   0.000000  -0.000001
     2  H    0.000000   0.000000   0.000000   0.000000   0.000000   0.000000
     3  H    0.000000   0.000000   0.000000  -0.000002   0.000000   0.000000
     4  H   -0.014889   0.000094   0.004015   0.000001  -0.000025   0.000000
     5  H    0.000000   0.000000   0.000000   0.000000   0.000000   0.000000
     6  H    0.000000   0.000000   0.000000   0.000000   0.000000   0.000000
     7  C    0.262943   0.376118   0.367805  -0.043427  -0.010389   0.004844
     8  C   -0.016734  -0.027586  -0.027479   0.385582  -0.010902  -0.034199
     9  C   -0.007575   0.005598  -0.002001  -0.026972  -0.000597  -0.007467
    10  N   -0.007107  -0.001464   0.003805  -0.035815   0.095567   0.320789
    11  O    0.011201   0.000417   0.004686   0.001077   0.000197   0.000224
    12  O   -0.000524  -0.000026   0.000130   0.000902  -0.000074   0.013171
    13  C    4.628375  -0.035374  -0.032187   0.004104  -0.018680   0.000200
    14  H   -0.035374   0.442062  -0.016165  -0.003233  -0.000281  -0.000053
    15  H   -0.032187  -0.016165   0.468682  -0.000706   0.000394  -0.000103
    16  H    0.004104  -0.003233  -0.000706   0.460906   0.000994   0.000989
    17  H   -0.018680  -0.000281   0.000394   0.000994   0.252512  -0.000484
    18  H    0.000200  -0.000053  -0.000103   0.000989  -0.000484   0.337426
    19  H   -0.000011   0.000002  -0.000002  -0.000247  -0.000020  -0.000259
    20  N    0.320679  -0.001692   0.004422  -0.000318   0.235674   0.000290
    21  O    0.313116   0.001085  -0.003034  -0.000071   0.001115   0.000002
    22  H   -0.000233   0.001617  -0.000072  -0.003801  -0.001568  -0.020800
    23  H   -0.019149  -0.000131  -0.000066   0.000010  -0.002106  -0.000012
              19         20         21         22         23
     1  C    0.027013   0.000000   0.000000   0.000000   0.000000
     2  H   -0.000942   0.000000   0.000000   0.000000   0.000000
     3  H    0.002071   0.000000   0.000000   0.000000   0.000000
     4  H    0.000000   0.005444   0.238555   0.000000  -0.000060
     5  H    0.005198   0.000000   0.000000   0.000000   0.000000
     6  H    0.004719   0.000000   0.000000   0.000000   0.000000
     7  C   -0.000158  -0.097498  -0.060828  -0.000907   0.003733
     8  C    0.005410   0.004048   0.002721  -0.029161  -0.000220
     9  C   -0.018775   0.000200  -0.000534   0.004137  -0.000101
    10  N   -0.000118  -0.075549  -0.000164   0.322195   0.001474
    11  O   -0.000660  -0.003457  -0.001629  -0.000080   0.000024
    12  O    0.236992   0.000054  -0.000001  -0.000003   0.000003
    13  C   -0.000011   0.320679   0.313116  -0.000233  -0.019149
    14  H    0.000002  -0.001692   0.001085   0.001617  -0.000131
    15  H   -0.000002   0.004422  -0.003034  -0.000072  -0.000066
    16  H   -0.000247  -0.000318  -0.000071  -0.003801   0.000010
    17  H   -0.000020   0.235674   0.001115  -0.001568  -0.002106
    18  H   -0.000259   0.000290   0.000002  -0.020800  -0.000012
    19  H    0.274904   0.000011   0.000000   0.000016  -0.000001
    20  N    0.000011   7.104721  -0.113678   0.000934   0.305809
    21  O    0.000000  -0.113678   8.187869   0.000002  -0.000610
    22  H    0.000016   0.000934   0.000002   0.369943  -0.000021
    23  H   -0.000001   0.305809  -0.000610  -0.000021   0.293531
 Mulliken charges:
               1
     1  C   -0.698162
     2  H    0.214227
     3  H    0.179468
     4  H    0.483952
     5  H    0.168950
     6  H    0.162614
     7  C   -0.332282
     8  C   -0.111070
     9  C    0.553603
    10  N   -0.793509
    11  O   -0.411489
    12  O   -0.605709
    13  C    0.611844
    14  H    0.259011
    15  H    0.227876
    16  H    0.260025
    17  H    0.458673
    18  H    0.385440
    19  H    0.464856
    20  N   -0.690095
    21  O   -0.563917
    22  H    0.357801
    23  H    0.417891
 Sum of Mulliken charges =   1.00000
 Mulliken charges with hydrogens summed into heavy atoms:
               1
     1  C    0.027097
     7  C    0.154605
     8  C    0.148955
     9  C    0.553603
    10  N   -0.050268
    11  O   -0.411489
    12  O   -0.140853
    13  C    0.611844
    20  N    0.186469
    21  O   -0.079964
 Electronic spatial extent (au):  <R**2>=           1995.4949
 Charge=              1.0000 electrons
 Dipole moment (field-independent basis, Debye):
    X=              4.7252    Y=              1.8210    Z=             -0.3569  Tot=              5.0765
 Quadrupole moment (field-independent basis, Debye-Ang):
   XX=            -33.5646   YY=            -47.8268   ZZ=            -47.6790
   XY=             -1.2625   XZ=             -3.9107   YZ=              1.5874
 Traceless Quadrupole moment (field-independent basis, Debye-Ang):
   XX=              9.4589   YY=             -4.8034   ZZ=             -4.6556
   XY=             -1.2625   XZ=             -3.9107   YZ=              1.5874
 Octapole moment (field-independent basis, Debye-Ang**2):
  XXX=            -21.3874  YYY=             14.8389  ZZZ=             11.7358  XYY=             24.6440
  XXY=            -17.9647  XXZ=             -1.7831  XZZ=             23.9891  YZZ=             -6.7437
  YYZ=             -6.9931  XYZ=              7.7950
 Hexadecapole moment (field-independent basis, Debye-Ang**3):
 XXXX=          -1435.1086 YYYY=           -426.3136 ZZZZ=           -196.6370 XXXY=             24.6236
 XXXZ=            -33.6040 YYYX=            -18.4056 YYYZ=             42.3555 ZZZX=             27.3710
 ZZZY=             -4.5655 XXYY=           -328.6721 XXZZ=           -288.5186 YYZZ=           -107.3030
 XXYZ=             12.9654 YYXZ=            -28.8242 ZZXY=            -31.9771
 N-N= 5.860304253977D+02 E-N=-2.404099797221D+03  KE= 5.298604914666D+02
 No NMR shielding tensors so no spin-rotation constants.
 Leave Link  601 at Thu Mar 12 19:30:00 2020, MaxMem=    33554432 cpu:         0.1
 (Enter /usr/local/gaussian09d01/g09/l9999.exe)
 1\1\GINC-KARURA\SP\RM062X\6-31G\C5H13N2O3(1+)\RTAKE\12-Mar-2020\0\\#p 
 M062X/6-31G\\chk calc\\1,1\C,0,3.824482709,-1.14219544,1.17225369\H,0,
 4.799113079,-1.62961423,1.173808707\H,0,3.053614027,-1.916312598,1.160
 804944\H,0,-2.560772261,-2.922313568,-0.958216195\H,0,3.75960642,-0.53
 291794,2.07824618\H,0,3.765323683,-0.52154146,0.273951194\C,0,-2.40154
 2122,-0.705499021,0.492562549\C,0,-1.33365594,0.193207044,1.141270536\
 C,0,0.021967089,-0.47033751,0.950186539\N,0,-1.303304814,1.529148773,0
 .515945207\O,0,0.155929117,-1.611462803,0.51692019\O,0,1.024922388,0.3
 53392554,1.298656\C,0,-2.121889445,-0.918337302,-0.967112723\H,0,-3.39
 229932,-0.247402335,0.596496855\H,0,-2.419176945,-1.669900059,1.004436
 439\H,0,-1.526304416,0.239474424,2.221387894\H,0,-1.503902114,0.960750
 702,-1.170400229\H,0,-0.410560182,1.997532273,0.666150752\H,0,1.924402
 159,-0.039925506,1.230818645\N,0,-1.700457396,0.069239192,-1.694919761
 \O,0,-2.336854815,-2.071648312,-1.575178364\H,0,-2.071900591,2.1285565
 43,0.807834339\H,0,-1.514408501,-0.054510917,-2.685235696\\Version=ES6
 4L-G09RevD.01\State=1-A\HF=-532.9167125\RMSD=4.923e-09\Dipole=-1.89938
 59,0.5587715,-0.262928\Quadrupole=6.8314941,-2.5427551,-4.2887389,2.30
 05354,2.5887695,0.2527954\PG=C01 [X(C5H13N2O3)]\\@


 THE ... SCIENTISTS WERE WRONG ... THE MOST PERSISTENT PRINCIPLES 
 OF THE UNIVERSE WERE ACCIDENT AND ERROR.

                          -- FRANK HERBERT IN DUNE
 Job cpu time:       0 days  0 hours  0 minutes 56.6 seconds.
 File lengths (MBytes):  RWF=      7 Int=      0 D2E=      0 Chk=      2 Scr=      1
 Normal termination of Gaussian 09 at Thu Mar 12 19:30:00 2020.
