 Entering Gaussian System, Link 0=g09
 Input=./h4_o21_12.gjf
 Output=./h4_o21_12.log
 Initial command:
 /usr/local/gaussian09d01/g09/l1.exe "/scr/Gau-22555.inp" -scrdir="/scr/"
 Entering Link 1 = /usr/local/gaussian09d01/g09/l1.exe PID=     22556.
  
 Copyright (c) 1988,1990,1992,1993,1995,1998,2003,2009,2013,
            Gaussian, Inc.  All Rights Reserved.
  
 This is part of the Gaussian(R) 09 program.  It is based on
 the Gaussian(R) 03 system (copyright 2003, Gaussian, Inc.),
 the Gaussian(R) 98 system (copyright 1998, Gaussian, Inc.),
 the Gaussian(R) 94 system (copyright 1995, Gaussian, Inc.),
 the Gaussian 92(TM) system (copyright 1992, Gaussian, Inc.),
 the Gaussian 90(TM) system (copyright 1990, Gaussian, Inc.),
 the Gaussian 88(TM) system (copyright 1988, Gaussian, Inc.),
 the Gaussian 86(TM) system (copyright 1986, Carnegie Mellon
 University), and the Gaussian 82(TM) system (copyright 1983,
 Carnegie Mellon University). Gaussian is a federally registered
 trademark of Gaussian, Inc.
  
 This software contains proprietary and confidential information,
 including trade secrets, belonging to Gaussian, Inc.
  
 This software is provided under written license and may be
 used, copied, transmitted, or stored only in accord with that
 written license.
  
 The following legend is applicable only to US Government
 contracts under FAR:
  
                    RESTRICTED RIGHTS LEGEND
  
 Use, reproduction and disclosure by the US Government is
 subject to restrictions as set forth in subparagraphs (a)
 and (c) of the Commercial Computer Software - Restricted
 Rights clause in FAR 52.227-19.
  
 Gaussian, Inc.
 340 Quinnipiac St., Bldg. 40, Wallingford CT 06492
  
  
 ---------------------------------------------------------------
 Warning -- This program may not be used in any manner that
 competes with the business of Gaussian, Inc. or will provide
 assistance to any competitor of Gaussian, Inc.  The licensee
 of this program is prohibited from giving any competitor of
 Gaussian, Inc. access to this program.  By using this program,
 the user acknowledges that Gaussian, Inc. is engaged in the
 business of creating and licensing software in the field of
 computational chemistry and represents and warrants to the
 licensee that it is not a competitor of Gaussian, Inc. and that
 it will not use this program in any manner prohibited above.
 ---------------------------------------------------------------
  

 Cite this work as:
 Gaussian 09, Revision D.01,
 M. J. Frisch, G. W. Trucks, H. B. Schlegel, G. E. Scuseria, 
 M. A. Robb, J. R. Cheeseman, G. Scalmani, V. Barone, B. Mennucci, 
 G. A. Petersson, H. Nakatsuji, M. Caricato, X. Li, H. P. Hratchian, 
 A. F. Izmaylov, J. Bloino, G. Zheng, J. L. Sonnenberg, M. Hada, 
 M. Ehara, K. Toyota, R. Fukuda, J. Hasegawa, M. Ishida, T. Nakajima, 
 Y. Honda, O. Kitao, H. Nakai, T. Vreven, J. A. Montgomery, Jr., 
 J. E. Peralta, F. Ogliaro, M. Bearpark, J. J. Heyd, E. Brothers, 
 K. N. Kudin, V. N. Staroverov, T. Keith, R. Kobayashi, J. Normand, 
 K. Raghavachari, A. Rendell, J. C. Burant, S. S. Iyengar, J. Tomasi, 
 M. Cossi, N. Rega, J. M. Millam, M. Klene, J. E. Knox, J. B. Cross, 
 V. Bakken, C. Adamo, J. Jaramillo, R. Gomperts, R. E. Stratmann, 
 O. Yazyev, A. J. Austin, R. Cammi, C. Pomelli, J. W. Ochterski, 
 R. L. Martin, K. Morokuma, V. G. Zakrzewski, G. A. Voth, 
 P. Salvador, J. J. Dannenberg, S. Dapprich, A. D. Daniels, 
 O. Farkas, J. B. Foresman, J. V. Ortiz, J. Cioslowski, 
 and D. J. Fox, Gaussian, Inc., Wallingford CT, 2013.
 
 ******************************************
 Gaussian 09:  ES64L-G09RevD.01 24-Apr-2013
                12-Mar-2020 
 ******************************************
 --------------
 #p M062X/6-31G
 --------------
 1/38=1/1;
 2/12=2,17=6,18=5,40=1/2;
 3/5=1,6=6,11=2,16=1,25=1,30=1,74=-55/1,2,3;
 4//1;
 5/5=2,38=5/2;
 6/7=2,8=2,9=2,10=2,28=1/1;
 99/5=1,9=1/99;
 Leave Link    1 at Thu Mar 12 19:30:00 2020, MaxMem=           0 cpu:         0.0
 (Enter /usr/local/gaussian09d01/g09/l101.exe)
 --------
 chk calc
 --------
 Symbolic Z-matrix:
 Charge =  1 Multiplicity = 1
 C                     3.82448  -1.1422    1.17225 
 H                     4.79911  -1.62961   1.17381 
 H                     3.05361  -1.91631   1.1608 
 H                    -2.58113  -2.99965  -0.90213 
 H                     3.75961  -0.53292   2.07825 
 H                     3.76532  -0.52154   0.27395 
 C                    -2.40154  -0.7055    0.49256 
 C                    -1.33366   0.19321   1.14127 
 C                     0.02197  -0.47034   0.95019 
 N                    -1.3033    1.52915   0.51595 
 O                     0.15593  -1.61146   0.51692 
 O                     1.02492   0.35339   1.29866 
 C                    -2.12189  -0.91834  -0.96711 
 H                    -3.3923   -0.2474    0.5965 
 H                    -2.41918  -1.6699    1.00444 
 H                    -1.5263    0.23947   2.22139 
 H                    -1.5039    0.96075  -1.1704 
 H                    -0.41056   1.99753   0.66615 
 H                     1.9244   -0.03993   1.23082 
 N                    -1.70046   0.06924  -1.69492 
 O                    -2.33685  -2.07165  -1.57518 
 H                    -2.0719    2.12856   0.80783 
 H                    -1.51441  -0.05451  -2.68524 
 
 NAtoms=     23 NQM=       23 NQMF=       0 NMMI=      0 NMMIF=      0
                NMic=       0 NMicF=      0.
                    Isotopes and Nuclear Properties:
 (Nuclear quadrupole moments (NQMom) in fm**2, nuclear magnetic moments (NMagM)
  in nuclear magnetons)

  Atom         1           2           3           4           5           6           7           8           9          10
 IAtWgt=          12           1           1           1           1           1          12          12          12          14
 AtmWgt=  12.0000000   1.0078250   1.0078250   1.0078250   1.0078250   1.0078250  12.0000000  12.0000000  12.0000000  14.0030740
 NucSpn=           0           1           1           1           1           1           0           0           0           2
 AtZEff=   0.0000000   0.0000000   0.0000000   0.0000000   0.0000000   0.0000000   0.0000000   0.0000000   0.0000000   0.0000000
 NQMom=    0.0000000   0.0000000   0.0000000   0.0000000   0.0000000   0.0000000   0.0000000   0.0000000   0.0000000   2.0440000
 NMagM=    0.0000000   2.7928460   2.7928460   2.7928460   2.7928460   2.7928460   0.0000000   0.0000000   0.0000000   0.4037610
 AtZNuc=   6.0000000   1.0000000   1.0000000   1.0000000   1.0000000   1.0000000   6.0000000   6.0000000   6.0000000   7.0000000

  Atom        11          12          13          14          15          16          17          18          19          20
 IAtWgt=          16          16          12           1           1           1           1           1           1          14
 AtmWgt=  15.9949146  15.9949146  12.0000000   1.0078250   1.0078250   1.0078250   1.0078250   1.0078250   1.0078250  14.0030740
 NucSpn=           0           0           0           1           1           1           1           1           1           2
 AtZEff=   0.0000000   0.0000000   0.0000000   0.0000000   0.0000000   0.0000000   0.0000000   0.0000000   0.0000000   0.0000000
 NQMom=    0.0000000   0.0000000   0.0000000   0.0000000   0.0000000   0.0000000   0.0000000   0.0000000   0.0000000   2.0440000
 NMagM=    0.0000000   0.0000000   0.0000000   2.7928460   2.7928460   2.7928460   2.7928460   2.7928460   2.7928460   0.4037610
 AtZNuc=   8.0000000   8.0000000   6.0000000   1.0000000   1.0000000   1.0000000   1.0000000   1.0000000   1.0000000   7.0000000

  Atom        21          22          23
 IAtWgt=          16           1           1
 AtmWgt=  15.9949146   1.0078250   1.0078250
 NucSpn=           0           1           1
 AtZEff=   0.0000000   0.0000000   0.0000000
 NQMom=    0.0000000   0.0000000   0.0000000
 NMagM=    0.0000000   2.7928460   2.7928460
 AtZNuc=   8.0000000   1.0000000   1.0000000
 Leave Link  101 at Thu Mar 12 19:30:01 2020, MaxMem=    33554432 cpu:         0.0
 (Enter /usr/local/gaussian09d01/g09/l202.exe)
                          Input orientation:                          
 ---------------------------------------------------------------------
 Center     Atomic      Atomic             Coordinates (Angstroms)
 Number     Number       Type             X           Y           Z
 ---------------------------------------------------------------------
      1          6           0        3.824483   -1.142195    1.172254
      2          1           0        4.799113   -1.629614    1.173809
      3          1           0        3.053614   -1.916313    1.160805
      4          1           0       -2.581128   -2.999647   -0.902129
      5          1           0        3.759606   -0.532918    2.078246
      6          1           0        3.765324   -0.521541    0.273951
      7          6           0       -2.401542   -0.705499    0.492563
      8          6           0       -1.333656    0.193207    1.141271
      9          6           0        0.021967   -0.470338    0.950187
     10          7           0       -1.303305    1.529149    0.515945
     11          8           0        0.155929   -1.611463    0.516920
     12          8           0        1.024922    0.353393    1.298656
     13          6           0       -2.121889   -0.918337   -0.967113
     14          1           0       -3.392299   -0.247402    0.596497
     15          1           0       -2.419177   -1.669900    1.004436
     16          1           0       -1.526304    0.239474    2.221388
     17          1           0       -1.503902    0.960751   -1.170400
     18          1           0       -0.410560    1.997532    0.666151
     19          1           0        1.924402   -0.039926    1.230819
     20          7           0       -1.700457    0.069239   -1.694920
     21          8           0       -2.336855   -2.071648   -1.575178
     22          1           0       -2.071901    2.128557    0.807834
     23          1           0       -1.514409   -0.054511   -2.685236
 ---------------------------------------------------------------------
                    Distance matrix (angstroms):
                    1          2          3          4          5
     1  C    0.000000
     2  H    1.089717   0.000000
     3  H    1.092532   1.768935   0.000000
     4  H    6.984629   7.788098   6.097510   0.000000
     5  H    1.093732   1.761058   1.803858   7.427806   0.000000
     6  H    1.093462   1.762467   1.799563   6.913872   1.804340
     7  C    6.278222   7.291606   5.627730   2.690823   6.364270
     8  C    5.328288   6.398015   4.868120   3.990737   5.229388
     9  C    3.867794   4.920879   3.365425   4.074872   3.904662
    10  N    5.819023   6.902903   5.591940   4.914647   5.685594
    11  O    3.756056   4.689455   2.983974   3.381159   4.072774
    12  O    3.176523   4.265257   3.047319   5.393508   2.978557
    13  C    6.323476   7.279405   5.684173   2.132363   6.634362
    14  H    7.294799   8.327247   6.682328   3.237086   7.309368
    15  H    6.268167   7.220389   5.480567   2.330117   6.373630
    16  H    5.624999   6.678459   5.171838   4.621787   5.343962
    17  H    6.188869   7.206477   5.872220   4.113044   6.363118
    18  H    5.296189   6.368250   5.250083   5.669450   5.078138
    19  H    2.197438   3.285472   2.191084   5.797346   2.080661
    20  N    6.341389   7.304801   5.890567   3.289705   6.664208
    21  O    6.809871   7.659919   6.047056   1.172112   7.272004
    22  H    6.752626   7.840192   6.538842   5.429710   6.534820
    23  H    6.675855   7.565298   6.255011   3.604329   7.122841
                    6          7          8          9         10
     6  H    0.000000
     7  C    6.173481   0.000000
     8  C    5.221370   1.539115   0.000000
     9  C    3.804292   2.477522   1.521354   0.000000
    10  N    5.473106   2.490045   1.475362   2.437797   0.000000
    11  O    3.778186   2.713305   2.421882   1.227938   3.463063
    12  O    3.053740   3.675826   2.369245   1.343831   2.723175
    13  C    6.029674   1.501385   2.510403   2.910818   2.976530
    14  H    7.170129   1.096474   2.174610   3.439769   2.743450
    15  H    6.332486   1.091969   2.160613   2.720492   3.423114
    16  H    5.689726   2.155888   1.098138   2.125307   2.149773
    17  H    5.661103   2.519443   2.441706   2.978788   1.790831
    18  H    4.892602   3.361625   2.081690   2.521535   1.019283
    19  H    2.129916   4.438671   3.267616   1.970601   3.659389
    20  N    5.839541   2.424215   2.862497   3.202261   2.678990
    21  O    6.561912   2.479133   3.676285   3.808636   4.290310
    22  H    6.432825   2.870528   2.098038   3.340478   1.017462
    23  H    6.070459   3.362914   3.838774   3.968584   3.577723
                   11         12         13         14         15
    11  O    0.000000
    12  O    2.286245   0.000000
    13  C    2.805572   4.080861   0.000000
    14  H    3.802225   4.512852   2.123434   0.000000
    15  H    2.621499   4.005259   2.130782   1.771124   0.000000
    16  H    3.026729   2.715358   3.444094   2.521757   2.433907
    17  H    3.495479   3.586095   1.988519   2.854401   3.533832
    18  H    3.656231   2.272415   3.754796   3.733008   4.195121
    19  H    2.471210   0.984055   4.687748   5.358426   4.644862
    20  N    3.341132   4.058317   1.297157   2.865865   3.290545
    21  O    3.286734   5.043936   1.321393   3.026220   2.612009
    22  H    4.362981   3.603113   3.526542   2.726407   3.819362
    23  H    3.932929   4.741938   2.016724   3.785954   4.128168
                   16         17         18         19         20
    16  H    0.000000
    17  H    3.467704   0.000000
    18  H    2.598926   2.375549   0.000000
    19  H    3.600926   4.303542   3.149942   0.000000
    20  N    3.923872   1.052876   3.310106   4.659557   0.000000
    21  O    4.517986   3.170662   5.029155   5.491796   2.236680
    22  H    2.421661   2.366391   1.672511   4.566362   3.262290
    23  H    4.915437   1.823621   4.081808   5.211632   1.015211
                   21         22         23
    21  O    0.000000
    22  H    4.836390   0.000000
    23  H    2.444890   4.156696   0.000000
 Stoichiometry    C5H13N2O3(1+)
 Framework group  C1[X(C5H13N2O3)]
 Deg. of freedom    63
 Full point group                 C1      NOp   1
 Largest Abelian subgroup         C1      NOp   1
 Largest concise Abelian subgroup C1      NOp   1
                         Standard orientation:                         
 ---------------------------------------------------------------------
 Center     Atomic      Atomic             Coordinates (Angstroms)
 Number     Number       Type             X           Y           Z
 ---------------------------------------------------------------------
      1          6           0       -4.368610   -0.943040    0.323944
      2          1           0       -5.272491   -1.546299    0.404944
      3          1           0       -3.653166   -1.479326   -0.303881
      4          1           0        2.339895   -2.324767   -1.044206
      5          1           0       -4.650254    0.013327   -0.125822
      6          1           0       -3.971559   -0.803083    1.333112
      7          6           0        1.651636    0.275629   -0.975116
      8          6           0        0.420136    1.156918   -0.700138
      9          6           0       -0.763785    0.241987   -0.424912
     10          7           0        0.632940    2.027421    0.471883
     11          8           0       -0.726798   -0.973569   -0.594879
     12          8           0       -1.821605    0.932722    0.033110
     13          6           0        1.945561   -0.628784    0.186695
     14          1           0        2.530368    0.904608   -1.160777
     15          1           0        1.471141   -0.325914   -1.868404
     16          1           0        0.189100    1.726764   -1.609976
     17          1           0        1.456170    0.798717    1.481663
     18          1           0       -0.248762    2.338713    0.877636
     19          1           0       -2.629369    0.393458    0.191466
     20          7           0        1.834317   -0.180408    1.398800
     21          8           0        2.371659   -1.870459    0.035813
     22          1           0        1.235251    2.824268    0.278276
     23          1           0        2.037196   -0.775364    2.195996
 ---------------------------------------------------------------------
 Rotational constants (GHZ):      1.7980033      0.7171985      0.6059489
 Leave Link  202 at Thu Mar 12 19:30:01 2020, MaxMem=    33554432 cpu:         0.0
 (Enter /usr/local/gaussian09d01/g09/l301.exe)
 Standard basis: 6-31G (6D, 7F)
 Ernie: Thresh=  0.10000D-02 Tol=  0.10000D-05 Strict=F.
 There are   116 symmetry adapted cartesian basis functions of A   symmetry.
 There are   116 symmetry adapted basis functions of A   symmetry.
   116 basis functions,   272 primitive gaussians,   116 cartesian basis functions
    40 alpha electrons       40 beta electrons
       nuclear repulsion energy       585.5434958530 Hartrees.
 IExCor= 4336 DFT=T Ex+Corr=M062X ExCW=0 ScaHFX=  0.540000
 ScaDFX=  1.000000  1.000000  1.000000  1.000000 ScalE2=  1.000000  1.000000
 IRadAn=      0 IRanWt=     -1 IRanGd=            0 ICorTp=0 IEmpDi=  4
 NAtoms=   23 NActive=   23 NUniq=   23 SFac= 1.00D+00 NAtFMM=   60 NAOKFM=F Big=F
 Integral buffers will be    131072 words long.
 Raffenetti 2 integral format.
 Two-electron integral symmetry is turned on.
 Leave Link  301 at Thu Mar 12 19:30:01 2020, MaxMem=    33554432 cpu:         0.0
 (Enter /usr/local/gaussian09d01/g09/l302.exe)
 NPDir=0 NMtPBC=     1 NCelOv=     1 NCel=       1 NClECP=     1 NCelD=      1
         NCelK=      1 NCelE2=     1 NClLst=     1 CellRange=     0.0.
 One-electron integrals computed using PRISM.
 NBasis=   116 RedAO= T EigKep=  3.53D-03  NBF=   116
 NBsUse=   116 1.00D-06 EigRej= -1.00D+00 NBFU=   116
 Precomputing XC quadrature grid using
 IXCGrd= 4 IRadAn=           0 IRanWt=          -1 IRanGd=           0 AccXCQ= 0.00D+00.
 Generated NRdTot=       0 NPtTot=           0 NUsed=           0 NTot=          32
 NSgBfM=   115   115   115   115   115 MxSgAt=    23 MxSgA2=    23.
 Leave Link  302 at Thu Mar 12 19:30:01 2020, MaxMem=    33554432 cpu:         0.3
 (Enter /usr/local/gaussian09d01/g09/l303.exe)
 DipDrv:  MaxL=1.
 Leave Link  303 at Thu Mar 12 19:30:01 2020, MaxMem=    33554432 cpu:         0.0
 (Enter /usr/local/gaussian09d01/g09/l401.exe)
 ExpMin= 1.61D-01 ExpMax= 5.48D+03 ExpMxC= 8.25D+02 IAcc=1 IRadAn=         1 AccDes= 0.00D+00
 Harris functional with IExCor= 1009 and IRadAn=       1 diagonalized for initial guess.
 HarFok:  IExCor= 1009 AccDes= 0.00D+00 IRadAn=         1 IDoV= 1 UseB2=F ITyADJ=14
 ICtDFT=  3500011 ScaDFX=  1.000000  1.000000  1.000000  1.000000
 FoFCou: FMM=F IPFlag=           0 FMFlag=      100000 FMFlg1=           0
         NFxFlg=           0 DoJE=T BraDBF=F KetDBF=T FulRan=T
         wScrn=  0.000000 ICntrl=     500 IOpCl=  0 I1Cent=   200000004 NGrid=           0
         NMat0=    1 NMatS0=      1 NMatT0=    0 NMatD0=    1 NMtDS0=    0 NMtDT0=    0
 Petite list used in FoFCou.
 Harris En= -532.724677207901    
 JPrj=0 DoOrth=F DoCkMO=F.
 Leave Link  401 at Thu Mar 12 19:30:02 2020, MaxMem=    33554432 cpu:         0.9
 (Enter /usr/local/gaussian09d01/g09/l502.exe)
 Closed shell SCF:
 Using DIIS extrapolation, IDIIS=  1040.
 Integral symmetry usage will be decided dynamically.
 Keep R1 ints in memory in canonical form, NReq=24030401.
 IVT=       60528 IEndB=       60528 NGot=    33554432 MDV=    10465614
 LenX=    10465614 LenY=    10451717
 Requested convergence on RMS density matrix=1.00D-08 within 128 cycles.
 Requested convergence on MAX density matrix=1.00D-06.
 Requested convergence on             energy=1.00D-06.
 No special actions if energy rises.
 FoFCou: FMM=F IPFlag=           0 FMFlag=           0 FMFlg1=           0
         NFxFlg=           0 DoJE=F BraDBF=F KetDBF=F FulRan=T
         wScrn=  0.000000 ICntrl=     600 IOpCl=  0 I1Cent=           0 NGrid=           0
         NMat0=    1 NMatS0=   6786 NMatT0=    0 NMatD0=    1 NMtDS0=    0 NMtDT0=    0
 Symmetry not used in FoFCou.
 Integral accuracy reduced to 1.0D-05 until final iterations.

 Cycle   1  Pass 0  IDiag  1:
 E= -532.633808043206    
 DIIS: error= 5.36D-02 at cycle   1 NSaved=   1.
 NSaved= 1 IEnMin= 1 EnMin= -532.633808043206     IErMin= 1 ErrMin= 5.36D-02
 ErrMax= 5.36D-02  0.00D+00 EMaxC= 1.00D-01 BMatC= 3.10D-01 BMatP= 3.10D-01
 IDIUse=3 WtCom= 4.64D-01 WtEn= 5.36D-01
 Coeff-Com:  0.100D+01
 Coeff-En:   0.100D+01
 Coeff:      0.100D+01
 Gap=     0.303 Goal=   None    Shift=    0.000
 GapD=    0.303 DampG=1.000 DampE=0.500 DampFc=0.5000 IDamp=-1.
 Damping current iteration by 5.00D-01
 RMSDP=8.30D-03 MaxDP=1.64D-01              OVMax= 1.76D-01

 Cycle   2  Pass 0  IDiag  1:
 E= -532.759085595543     Delta-E=       -0.125277552337 Rises=F Damp=T
 DIIS: error= 1.05D-02 at cycle   2 NSaved=   2.
 NSaved= 2 IEnMin= 2 EnMin= -532.759085595543     IErMin= 2 ErrMin= 1.05D-02
 ErrMax= 1.05D-02  0.00D+00 EMaxC= 1.00D-01 BMatC= 1.89D-02 BMatP= 3.10D-01
 IDIUse=3 WtCom= 8.95D-01 WtEn= 1.05D-01
 Coeff-Com:  0.322D-01 0.968D+00
 Coeff-En:   0.335D-01 0.967D+00
 Coeff:      0.324D-01 0.968D+00
 Gap=     0.361 Goal=   None    Shift=    0.000
 RMSDP=2.12D-03 MaxDP=3.43D-02 DE=-1.25D-01 OVMax= 1.09D-01

 Cycle   3  Pass 0  IDiag  1:
 E= -532.888549399666     Delta-E=       -0.129463804124 Rises=F Damp=F
 DIIS: error= 1.18D-02 at cycle   3 NSaved=   3.
 NSaved= 3 IEnMin= 3 EnMin= -532.888549399666     IErMin= 2 ErrMin= 1.05D-02
 ErrMax= 1.18D-02  0.00D+00 EMaxC= 1.00D-01 BMatC= 1.49D-02 BMatP= 1.89D-02
 IDIUse=3 WtCom= 8.82D-01 WtEn= 1.18D-01
 Coeff-Com: -0.240D-01 0.473D+00 0.551D+00
 Coeff-En:   0.000D+00 0.000D+00 0.100D+01
 Coeff:     -0.212D-01 0.417D+00 0.604D+00
 Gap=     0.336 Goal=   None    Shift=    0.000
 RMSDP=1.39D-03 MaxDP=3.61D-02 DE=-1.29D-01 OVMax= 5.60D-02

 Cycle   4  Pass 0  IDiag  1:
 E= -532.898091810069     Delta-E=       -0.009542410403 Rises=F Damp=F
 DIIS: error= 7.63D-03 at cycle   4 NSaved=   4.
 NSaved= 4 IEnMin= 4 EnMin= -532.898091810069     IErMin= 4 ErrMin= 7.63D-03
 ErrMax= 7.63D-03  0.00D+00 EMaxC= 1.00D-01 BMatC= 3.71D-03 BMatP= 1.49D-02
 IDIUse=3 WtCom= 9.24D-01 WtEn= 7.63D-02
 Coeff-Com: -0.681D-02 0.351D-01 0.339D+00 0.633D+00
 Coeff-En:   0.000D+00 0.000D+00 0.199D+00 0.801D+00
 Coeff:     -0.629D-02 0.324D-01 0.328D+00 0.646D+00
 Gap=     0.333 Goal=   None    Shift=    0.000
 RMSDP=5.32D-04 MaxDP=1.14D-02 DE=-9.54D-03 OVMax= 1.83D-02

 Cycle   5  Pass 0  IDiag  1:
 E= -532.900770415644     Delta-E=       -0.002678605575 Rises=F Damp=F
 DIIS: error= 1.16D-03 at cycle   5 NSaved=   5.
 NSaved= 5 IEnMin= 5 EnMin= -532.900770415644     IErMin= 5 ErrMin= 1.16D-03
 ErrMax= 1.16D-03  0.00D+00 EMaxC= 1.00D-01 BMatC= 1.66D-04 BMatP= 3.71D-03
 IDIUse=3 WtCom= 9.88D-01 WtEn= 1.16D-02
 Coeff-Com: -0.101D-02-0.751D-02 0.143D+00 0.334D+00 0.531D+00
 Coeff-En:   0.000D+00 0.000D+00 0.000D+00 0.000D+00 0.100D+01
 Coeff:     -0.996D-03-0.742D-02 0.142D+00 0.330D+00 0.537D+00
 Gap=     0.331 Goal=   None    Shift=    0.000
 RMSDP=1.07D-04 MaxDP=2.13D-03 DE=-2.68D-03 OVMax= 3.68D-03

 Cycle   6  Pass 0  IDiag  1:
 E= -532.900916226391     Delta-E=       -0.000145810747 Rises=F Damp=F
 DIIS: error= 2.89D-04 at cycle   6 NSaved=   6.
 NSaved= 6 IEnMin= 6 EnMin= -532.900916226391     IErMin= 6 ErrMin= 2.89D-04
 ErrMax= 2.89D-04  0.00D+00 EMaxC= 1.00D-01 BMatC= 4.29D-06 BMatP= 1.66D-04
 IDIUse=3 WtCom= 9.97D-01 WtEn= 2.89D-03
 Coeff-Com:  0.620D-03-0.385D-02 0.145D-01 0.268D-01 0.129D+00 0.833D+00
 Coeff-En:   0.000D+00 0.000D+00 0.000D+00 0.000D+00 0.000D+00 0.100D+01
 Coeff:      0.618D-03-0.384D-02 0.144D-01 0.267D-01 0.128D+00 0.834D+00
 Gap=     0.331 Goal=   None    Shift=    0.000
 RMSDP=2.77D-05 MaxDP=4.05D-04 DE=-1.46D-04 OVMax= 5.73D-04

 Cycle   7  Pass 0  IDiag  1:
 E= -532.900920404054     Delta-E=       -0.000004177664 Rises=F Damp=F
 DIIS: error= 8.84D-05 at cycle   7 NSaved=   7.
 NSaved= 7 IEnMin= 7 EnMin= -532.900920404054     IErMin= 7 ErrMin= 8.84D-05
 ErrMax= 8.84D-05  0.00D+00 EMaxC= 1.00D-01 BMatC= 5.29D-07 BMatP= 4.29D-06
 IDIUse=1 WtCom= 1.00D+00 WtEn= 0.00D+00
 Coeff-Com:  0.449D-03-0.631D-03-0.129D-01-0.364D-01-0.205D-01 0.274D+00
 Coeff-Com:  0.796D+00
 Coeff:      0.449D-03-0.631D-03-0.129D-01-0.364D-01-0.205D-01 0.274D+00
 Coeff:      0.796D+00
 Gap=     0.331 Goal=   None    Shift=    0.000
 RMSDP=1.28D-05 MaxDP=2.16D-04 DE=-4.18D-06 OVMax= 2.99D-04

 Cycle   8  Pass 0  IDiag  1:
 E= -532.900921048286     Delta-E=       -0.000000644231 Rises=F Damp=F
 DIIS: error= 2.48D-05 at cycle   8 NSaved=   8.
 NSaved= 8 IEnMin= 8 EnMin= -532.900921048286     IErMin= 8 ErrMin= 2.48D-05
 ErrMax= 2.48D-05  0.00D+00 EMaxC= 1.00D-01 BMatC= 4.92D-08 BMatP= 5.29D-07
 IDIUse=1 WtCom= 1.00D+00 WtEn= 0.00D+00
 Coeff-Com:  0.103D-03 0.122D-03-0.498D-02-0.140D-01-0.176D-01 0.438D-02
 Coeff-Com:  0.258D+00 0.774D+00
 Coeff:      0.103D-03 0.122D-03-0.498D-02-0.140D-01-0.176D-01 0.438D-02
 Coeff:      0.258D+00 0.774D+00
 Gap=     0.331 Goal=   None    Shift=    0.000
 RMSDP=3.50D-06 MaxDP=5.17D-05 DE=-6.44D-07 OVMax= 9.31D-05

 Initial convergence to 1.0D-05 achieved.  Increase integral accuracy.
 Cycle   9  Pass 1  IDiag  1:
 E= -532.901154944776     Delta-E=       -0.000233896490 Rises=F Damp=F
 DIIS: error= 1.29D-04 at cycle   1 NSaved=   1.
 NSaved= 1 IEnMin= 1 EnMin= -532.901154944776     IErMin= 1 ErrMin= 1.29D-04
 ErrMax= 1.29D-04  0.00D+00 EMaxC= 1.00D-01 BMatC= 1.80D-06 BMatP= 1.80D-06
 IDIUse=3 WtCom= 9.99D-01 WtEn= 1.29D-03
 Coeff-Com:  0.100D+01
 Coeff-En:   0.100D+01
 Coeff:      0.100D+01
 Gap=     0.331 Goal=   None    Shift=    0.000
 RMSDP=3.50D-06 MaxDP=5.17D-05 DE=-2.34D-04 OVMax= 2.00D-04

 Cycle  10  Pass 1  IDiag  1:
 E= -532.901156662363     Delta-E=       -0.000001717587 Rises=F Damp=F
 DIIS: error= 7.15D-05 at cycle   2 NSaved=   2.
 NSaved= 2 IEnMin= 2 EnMin= -532.901156662363     IErMin= 2 ErrMin= 7.15D-05
 ErrMax= 7.15D-05  0.00D+00 EMaxC= 1.00D-01 BMatC= 3.07D-07 BMatP= 1.80D-06
 IDIUse=1 WtCom= 1.00D+00 WtEn= 0.00D+00
 Coeff-Com:  0.207D+00 0.793D+00
 Coeff:      0.207D+00 0.793D+00
 Gap=     0.331 Goal=   None    Shift=    0.000
 RMSDP=6.77D-06 MaxDP=1.37D-04 DE=-1.72D-06 OVMax= 1.51D-04

 Cycle  11  Pass 1  IDiag  1:
 E= -532.901156893863     Delta-E=       -0.000000231501 Rises=F Damp=F
 DIIS: error= 3.20D-05 at cycle   3 NSaved=   3.
 NSaved= 3 IEnMin= 3 EnMin= -532.901156893863     IErMin= 3 ErrMin= 3.20D-05
 ErrMax= 3.20D-05  0.00D+00 EMaxC= 1.00D-01 BMatC= 1.09D-07 BMatP= 3.07D-07
 IDIUse=1 WtCom= 1.00D+00 WtEn= 0.00D+00
 Coeff-Com: -0.418D-01 0.354D+00 0.688D+00
 Coeff:     -0.418D-01 0.354D+00 0.688D+00
 Gap=     0.331 Goal=   None    Shift=    0.000
 RMSDP=3.31D-06 MaxDP=7.56D-05 DE=-2.32D-07 OVMax= 6.21D-05

 Cycle  12  Pass 1  IDiag  1:
 E= -532.901156986362     Delta-E=       -0.000000092499 Rises=F Damp=F
 DIIS: error= 9.23D-06 at cycle   4 NSaved=   4.
 NSaved= 4 IEnMin= 4 EnMin= -532.901156986362     IErMin= 4 ErrMin= 9.23D-06
 ErrMax= 9.23D-06  0.00D+00 EMaxC= 1.00D-01 BMatC= 1.06D-08 BMatP= 1.09D-07
 IDIUse=1 WtCom= 1.00D+00 WtEn= 0.00D+00
 Coeff-Com: -0.314D-01 0.161D+00 0.372D+00 0.498D+00
 Coeff:     -0.314D-01 0.161D+00 0.372D+00 0.498D+00
 Gap=     0.331 Goal=   None    Shift=    0.000
 RMSDP=8.02D-07 MaxDP=1.66D-05 DE=-9.25D-08 OVMax= 2.17D-05

 Cycle  13  Pass 1  IDiag  1:
 E= -532.901156994983     Delta-E=       -0.000000008621 Rises=F Damp=F
 DIIS: error= 2.36D-06 at cycle   5 NSaved=   5.
 NSaved= 5 IEnMin= 5 EnMin= -532.901156994983     IErMin= 5 ErrMin= 2.36D-06
 ErrMax= 2.36D-06  0.00D+00 EMaxC= 1.00D-01 BMatC= 3.63D-10 BMatP= 1.06D-08
 IDIUse=1 WtCom= 1.00D+00 WtEn= 0.00D+00
 Coeff-Com: -0.416D-02 0.238D-02 0.196D-01 0.142D+00 0.840D+00
 Coeff:     -0.416D-02 0.238D-02 0.196D-01 0.142D+00 0.840D+00
 Gap=     0.331 Goal=   None    Shift=    0.000
 RMSDP=3.07D-07 MaxDP=5.31D-06 DE=-8.62D-09 OVMax= 7.20D-06

 Cycle  14  Pass 1  IDiag  1:
 E= -532.901156995275     Delta-E=       -0.000000000292 Rises=F Damp=F
 DIIS: error= 1.49D-06 at cycle   6 NSaved=   6.
 NSaved= 6 IEnMin= 6 EnMin= -532.901156995275     IErMin= 6 ErrMin= 1.49D-06
 ErrMax= 1.49D-06  0.00D+00 EMaxC= 1.00D-01 BMatC= 1.61D-10 BMatP= 3.63D-10
 IDIUse=1 WtCom= 1.00D+00 WtEn= 0.00D+00
 Coeff-Com:  0.190D-02-0.196D-01-0.379D-01 0.217D-01 0.489D+00 0.545D+00
 Coeff:      0.190D-02-0.196D-01-0.379D-01 0.217D-01 0.489D+00 0.545D+00
 Gap=     0.331 Goal=   None    Shift=    0.000
 RMSDP=1.02D-07 MaxDP=2.66D-06 DE=-2.92D-10 OVMax= 5.05D-06

 Cycle  15  Pass 1  IDiag  1:
 E= -532.901156995401     Delta-E=       -0.000000000126 Rises=F Damp=F
 DIIS: error= 3.60D-07 at cycle   7 NSaved=   7.
 NSaved= 7 IEnMin= 7 EnMin= -532.901156995401     IErMin= 7 ErrMin= 3.60D-07
 ErrMax= 3.60D-07  0.00D+00 EMaxC= 1.00D-01 BMatC= 6.52D-12 BMatP= 1.61D-10
 IDIUse=1 WtCom= 1.00D+00 WtEn= 0.00D+00
 Coeff-Com:  0.875D-03-0.593D-02-0.131D-01-0.300D-02 0.637D-01 0.187D+00
 Coeff-Com:  0.771D+00
 Coeff:      0.875D-03-0.593D-02-0.131D-01-0.300D-02 0.637D-01 0.187D+00
 Coeff:      0.771D+00
 Gap=     0.331 Goal=   None    Shift=    0.000
 RMSDP=4.05D-08 MaxDP=7.74D-07 DE=-1.26D-10 OVMax= 1.02D-06

 Cycle  16  Pass 1  IDiag  1:
 E= -532.901156995405     Delta-E=       -0.000000000004 Rises=F Damp=F
 DIIS: error= 9.56D-08 at cycle   8 NSaved=   8.
 NSaved= 8 IEnMin= 8 EnMin= -532.901156995405     IErMin= 8 ErrMin= 9.56D-08
 ErrMax= 9.56D-08  0.00D+00 EMaxC= 1.00D-01 BMatC= 1.69D-12 BMatP= 6.52D-12
 IDIUse=1 WtCom= 1.00D+00 WtEn= 0.00D+00
 Coeff-Com:  0.127D-03 0.204D-03-0.491D-03-0.468D-02-0.531D-01 0.138D-01
 Coeff-Com:  0.410D+00 0.634D+00
 Coeff:      0.127D-03 0.204D-03-0.491D-03-0.468D-02-0.531D-01 0.138D-01
 Coeff:      0.410D+00 0.634D+00
 Gap=     0.331 Goal=   None    Shift=    0.000
 RMSDP=1.40D-08 MaxDP=3.05D-07 DE=-4.32D-12 OVMax= 3.97D-07

 Cycle  17  Pass 1  IDiag  1:
 E= -532.901156995411     Delta-E=       -0.000000000005 Rises=F Damp=F
 DIIS: error= 3.29D-08 at cycle   9 NSaved=   9.
 NSaved= 9 IEnMin= 9 EnMin= -532.901156995411     IErMin= 9 ErrMin= 3.29D-08
 ErrMax= 3.29D-08  0.00D+00 EMaxC= 1.00D-01 BMatC= 7.83D-14 BMatP= 1.69D-12
 IDIUse=1 WtCom= 1.00D+00 WtEn= 0.00D+00
 Coeff-Com: -0.519D-04 0.631D-03 0.118D-02-0.749D-03-0.198D-01-0.125D-01
 Coeff-Com:  0.137D-01 0.163D+00 0.854D+00
 Coeff:     -0.519D-04 0.631D-03 0.118D-02-0.749D-03-0.198D-01-0.125D-01
 Coeff:      0.137D-01 0.163D+00 0.854D+00
 Gap=     0.331 Goal=   None    Shift=    0.000
 RMSDP=5.10D-09 MaxDP=8.96D-08 DE=-5.46D-12 OVMax= 2.19D-07

 SCF Done:  E(RM062X) =  -532.901156995     A.U. after   17 cycles
            NFock= 17  Conv=0.51D-08     -V/T= 2.0059
 KE= 5.297550061778D+02 PE=-2.403161828902D+03 EE= 7.549621698758D+02
 Leave Link  502 at Thu Mar 12 19:30:57 2020, MaxMem=    33554432 cpu:        55.2
 (Enter /usr/local/gaussian09d01/g09/l601.exe)
 Copying SCF densities to generalized density rwf, IOpCl= 0 IROHF=0.

 **********************************************************************

            Population analysis using the SCF density.

 **********************************************************************

 Orbital symmetries:
       Occupied  (A) (A) (A) (A) (A) (A) (A) (A) (A) (A) (A) (A)
                 (A) (A) (A) (A) (A) (A) (A) (A) (A) (A) (A) (A)
                 (A) (A) (A) (A) (A) (A) (A) (A) (A) (A) (A) (A)
                 (A) (A) (A) (A)
       Virtual   (A) (A) (A) (A) (A) (A) (A) (A) (A) (A) (A) (A)
                 (A) (A) (A) (A) (A) (A) (A) (A) (A) (A) (A) (A)
                 (A) (A) (A) (A) (A) (A) (A) (A) (A) (A) (A) (A)
                 (A) (A) (A) (A) (A) (A) (A) (A) (A) (A) (A) (A)
                 (A) (A) (A) (A) (A) (A) (A) (A) (A) (A) (A) (A)
                 (A) (A) (A) (A) (A) (A) (A) (A) (A) (A) (A) (A)
                 (A) (A) (A) (A)
 The electronic state is 1-A.
 Alpha  occ. eigenvalues --  -19.89366 -19.83993 -19.80472 -14.98400 -14.92807
 Alpha  occ. eigenvalues --  -10.89217 -10.86113 -10.77830 -10.75324 -10.63050
 Alpha  occ. eigenvalues --   -1.40768  -1.40142  -1.31184  -1.24619  -1.18255
 Alpha  occ. eigenvalues --   -1.06207  -0.96612  -0.90631  -0.89792  -0.86112
 Alpha  occ. eigenvalues --   -0.83723  -0.78911  -0.76319  -0.73915  -0.73287
 Alpha  occ. eigenvalues --   -0.72441  -0.71874  -0.69036  -0.66170  -0.64449
 Alpha  occ. eigenvalues --   -0.63577  -0.61215  -0.60526  -0.57062  -0.56847
 Alpha  occ. eigenvalues --   -0.55959  -0.55865  -0.54081  -0.51525  -0.49200
 Alpha virt. eigenvalues --   -0.16093  -0.12949  -0.12162  -0.03425  -0.01046
 Alpha virt. eigenvalues --   -0.00498   0.01088   0.01804   0.04384   0.05109
 Alpha virt. eigenvalues --    0.06716   0.07492   0.08004   0.10276   0.11120
 Alpha virt. eigenvalues --    0.11287   0.12333   0.13054   0.16049   0.18648
 Alpha virt. eigenvalues --    0.20308   0.24046   0.28074   0.38948   0.41696
 Alpha virt. eigenvalues --    0.43219   0.46055   0.46594   0.48221   0.48284
 Alpha virt. eigenvalues --    0.49802   0.51953   0.52123   0.54760   0.58273
 Alpha virt. eigenvalues --    0.58583   0.59299   0.62467   0.63603   0.64737
 Alpha virt. eigenvalues --    0.67805   0.70413   0.71424   0.75341   0.76978
 Alpha virt. eigenvalues --    0.78375   0.79202   0.80929   0.83389   0.84269
 Alpha virt. eigenvalues --    0.86243   0.87243   0.87939   0.88197   0.89185
 Alpha virt. eigenvalues --    0.92097   0.92440   0.94609   0.95230   0.96704
 Alpha virt. eigenvalues --    1.02437   1.04105   1.09122   1.11271   1.12506
 Alpha virt. eigenvalues --    1.15737   1.19285   1.28763   1.30024   1.33577
 Alpha virt. eigenvalues --    1.42268   1.53865   1.63793   1.76328   1.76601
 Alpha virt. eigenvalues --    1.86535
          Condensed to atoms (all electrons):
               1          2          3          4          5          6
     1  C    5.189206   0.375477   0.371660   0.000000   0.370202   0.370873
     2  H    0.375477   0.469195  -0.017951   0.000000  -0.019823  -0.020245
     3  H    0.371660  -0.017951   0.521308   0.000000  -0.029571  -0.030129
     4  H    0.000000   0.000000   0.000000   0.298299   0.000000   0.000000
     5  H    0.370202  -0.019823  -0.029571   0.000000   0.538184  -0.032224
     6  H    0.370873  -0.020245  -0.030129   0.000000  -0.032224   0.545033
     7  C    0.000000   0.000000  -0.000001  -0.006703   0.000000   0.000000
     8  C   -0.000004   0.000001   0.000083   0.000268  -0.000011  -0.000007
     9  C    0.000271   0.000037   0.001484   0.000036  -0.000154  -0.000131
    10  N    0.000000   0.000000  -0.000001   0.000017   0.000000   0.000000
    11  O   -0.001311   0.000015   0.003282   0.000295   0.000043   0.000016
    12  O   -0.005247   0.000175  -0.001621   0.000000  -0.000763  -0.000633
    13  C    0.000000   0.000000   0.000000  -0.013412   0.000000   0.000000
    14  H    0.000000   0.000000   0.000000   0.000164   0.000000   0.000000
    15  H    0.000000   0.000000   0.000000   0.004342   0.000000   0.000000
    16  H    0.000001   0.000000  -0.000002   0.000000   0.000000   0.000000
    17  H    0.000000   0.000000   0.000000  -0.000029   0.000000   0.000000
    18  H   -0.000001   0.000000   0.000000   0.000000   0.000000   0.000000
    19  H    0.026967  -0.000940   0.002071   0.000000   0.005188   0.004710
    20  N    0.000000   0.000000   0.000000   0.005109   0.000000   0.000000
    21  O    0.000000   0.000000   0.000000   0.223364   0.000000   0.000000
    22  H    0.000000   0.000000   0.000000   0.000000   0.000000   0.000000
    23  H    0.000000   0.000000   0.000000  -0.000065   0.000000   0.000000
               7          8          9         10         11         12
     1  C    0.000000  -0.000004   0.000271   0.000000  -0.001311  -0.005247
     2  H    0.000000   0.000001   0.000037   0.000000   0.000015   0.000175
     3  H   -0.000001   0.000083   0.001484  -0.000001   0.003282  -0.001621
     4  H   -0.006703   0.000268   0.000036   0.000017   0.000295   0.000000
     5  H    0.000000  -0.000011  -0.000154   0.000000   0.000043  -0.000763
     6  H    0.000000  -0.000007  -0.000131   0.000000   0.000016  -0.000633
     7  C    5.423699   0.216558  -0.048195  -0.073020   0.007955   0.005377
     8  C    0.216558   5.570083   0.151944   0.193559  -0.124279  -0.148143
     9  C   -0.048195   0.151944   4.754038  -0.049395   0.495293   0.195448
    10  N   -0.073020   0.193559  -0.049395   7.094885   0.002198   0.001778
    11  O    0.007955  -0.124279   0.495293   0.002198   8.124823  -0.108562
    12  O    0.005377  -0.148143   0.195448   0.001778  -0.108562   8.417419
    13  C    0.261158  -0.017044  -0.007634  -0.007135   0.011056  -0.000529
    14  H    0.376163  -0.027577   0.005608  -0.001469   0.000416  -0.000026
    15  H    0.368160  -0.027574  -0.002047   0.003834   0.004695   0.000130
    16  H   -0.043469   0.385524  -0.027059  -0.035874   0.001083   0.000909
    17  H   -0.010385  -0.010953  -0.000597   0.095231   0.000198  -0.000074
    18  H    0.004842  -0.034214  -0.007478   0.320799   0.000224   0.013169
    19  H   -0.000158   0.005422  -0.018754  -0.000118  -0.000648   0.236988
    20  N   -0.095888   0.004295   0.000268  -0.075591  -0.003435   0.000055
    21  O   -0.058307   0.002697  -0.000557  -0.000163  -0.001628  -0.000001
    22  H   -0.000918  -0.029165   0.004141   0.322198  -0.000080  -0.000003
    23  H    0.003803  -0.000227  -0.000100   0.001481   0.000025   0.000003
              13         14         15         16         17         18
     1  C    0.000000   0.000000   0.000000   0.000001   0.000000  -0.000001
     2  H    0.000000   0.000000   0.000000   0.000000   0.000000   0.000000
     3  H    0.000000   0.000000   0.000000  -0.000002   0.000000   0.000000
     4  H   -0.013412   0.000164   0.004342   0.000000  -0.000029   0.000000
     5  H    0.000000   0.000000   0.000000   0.000000   0.000000   0.000000
     6  H    0.000000   0.000000   0.000000   0.000000   0.000000   0.000000
     7  C    0.261158   0.376163   0.368160  -0.043469  -0.010385   0.004842
     8  C   -0.017044  -0.027577  -0.027574   0.385524  -0.010953  -0.034214
     9  C   -0.007634   0.005608  -0.002047  -0.027059  -0.000597  -0.007478
    10  N   -0.007135  -0.001469   0.003834  -0.035874   0.095231   0.320799
    11  O    0.011056   0.000416   0.004695   0.001083   0.000198   0.000224
    12  O   -0.000529  -0.000026   0.000130   0.000909  -0.000074   0.013169
    13  C    4.628775  -0.035405  -0.032614   0.004098  -0.018447   0.000197
    14  H   -0.035405   0.443143  -0.016393  -0.003244  -0.000282  -0.000053
    15  H   -0.032614  -0.016393   0.472633  -0.000703   0.000396  -0.000104
    16  H    0.004098  -0.003244  -0.000703   0.461880   0.000993   0.000987
    17  H   -0.018447  -0.000282   0.000396   0.000993   0.253124  -0.000489
    18  H    0.000197  -0.000053  -0.000104   0.000987  -0.000489   0.337728
    19  H   -0.000010   0.000002  -0.000002  -0.000248  -0.000020  -0.000260
    20  N    0.325637  -0.001651   0.004404  -0.000317   0.235792   0.000296
    21  O    0.303376   0.001102  -0.003245  -0.000070   0.001159   0.000002
    22  H   -0.000228   0.001619  -0.000073  -0.003810  -0.001563  -0.020835
    23  H   -0.019150  -0.000132  -0.000067   0.000010  -0.002200  -0.000013
              19         20         21         22         23
     1  C    0.026967   0.000000   0.000000   0.000000   0.000000
     2  H   -0.000940   0.000000   0.000000   0.000000   0.000000
     3  H    0.002071   0.000000   0.000000   0.000000   0.000000
     4  H    0.000000   0.005109   0.223364   0.000000  -0.000065
     5  H    0.005188   0.000000   0.000000   0.000000   0.000000
     6  H    0.004710   0.000000   0.000000   0.000000   0.000000
     7  C   -0.000158  -0.095888  -0.058307  -0.000918   0.003803
     8  C    0.005422   0.004295   0.002697  -0.029165  -0.000227
     9  C   -0.018754   0.000268  -0.000557   0.004141  -0.000100
    10  N   -0.000118  -0.075591  -0.000163   0.322198   0.001481
    11  O   -0.000648  -0.003435  -0.001628  -0.000080   0.000025
    12  O    0.236988   0.000055  -0.000001  -0.000003   0.000003
    13  C   -0.000010   0.325637   0.303376  -0.000228  -0.019150
    14  H    0.000002  -0.001651   0.001102   0.001619  -0.000132
    15  H   -0.000002   0.004404  -0.003245  -0.000073  -0.000067
    16  H   -0.000248  -0.000317  -0.000070  -0.003810   0.000010
    17  H   -0.000020   0.235792   0.001159  -0.001563  -0.002200
    18  H   -0.000260   0.000296   0.000002  -0.020835  -0.000013
    19  H    0.275100   0.000011   0.000000   0.000016  -0.000001
    20  N    0.000011   7.100913  -0.113939   0.000936   0.305746
    21  O    0.000000  -0.113939   8.211885   0.000002  -0.000592
    22  H    0.000016   0.000936   0.000002   0.370200  -0.000021
    23  H   -0.000001   0.305746  -0.000592  -0.000021   0.294465
 Mulliken charges:
               1
     1  C   -0.698095
     2  H    0.214057
     3  H    0.179388
     4  H    0.488316
     5  H    0.168927
     6  H    0.162735
     7  C   -0.330672
     8  C   -0.111236
     9  C    0.553532
    10  N   -0.793215
    11  O   -0.411675
    12  O   -0.605851
    13  C    0.617312
    14  H    0.258013
    15  H    0.224228
    16  H    0.259311
    17  H    0.458145
    18  H    0.385202
    19  H    0.464684
    20  N   -0.692640
    21  O   -0.565086
    22  H    0.357584
    23  H    0.417034
 Sum of Mulliken charges =   1.00000
 Mulliken charges with hydrogens summed into heavy atoms:
               1
     1  C    0.027013
     7  C    0.151569
     8  C    0.148075
     9  C    0.553532
    10  N   -0.050429
    11  O   -0.411675
    12  O   -0.141166
    13  C    0.617312
    20  N    0.182539
    21  O   -0.076770
 Electronic spatial extent (au):  <R**2>=           1996.2818
 Charge=              1.0000 electrons
 Dipole moment (field-independent basis, Debye):
    X=              4.7539    Y=              1.6931    Z=             -0.5111  Tot=              5.0722
 Quadrupole moment (field-independent basis, Debye-Ang):
   XX=            -33.6064   YY=            -47.4561   ZZ=            -47.4227
   XY=             -1.5689   XZ=             -4.2649   YZ=              2.0673
 Traceless Quadrupole moment (field-independent basis, Debye-Ang):
   XX=              9.2220   YY=             -4.6277   ZZ=             -4.5943
   XY=             -1.5689   XZ=             -4.2649   YZ=              2.0673
 Octapole moment (field-independent basis, Debye-Ang**2):
  XXX=            -21.6625  YYY=             13.6652  ZZZ=             11.2709  XYY=             25.5886
  XXY=            -18.5190  XXZ=             -2.5360  XZZ=             24.6344  YZZ=             -7.6343
  YYZ=             -8.3767  XYZ=              8.8749
 Hexadecapole moment (field-independent basis, Debye-Ang**3):
 XXXX=          -1437.8666 YYYY=           -423.7916 ZZZZ=           -196.7219 XXXY=             23.7452
 XXXZ=            -35.2950 YYYX=            -21.2917 YYYZ=             45.8437 ZZZX=             26.2757
 ZZZY=             -3.0447 XXYY=           -326.9751 XXZZ=           -287.1195 YYZZ=           -105.3834
 XXYZ=             15.4058 YYXZ=            -32.0197 ZZXY=            -33.9680
 N-N= 5.855434958530D+02 E-N=-2.403161830524D+03  KE= 5.297550061778D+02
 No NMR shielding tensors so no spin-rotation constants.
 Leave Link  601 at Thu Mar 12 19:30:57 2020, MaxMem=    33554432 cpu:         0.1
 (Enter /usr/local/gaussian09d01/g09/l9999.exe)
 1\1\GINC-KARURA\SP\RM062X\6-31G\C5H13N2O3(1+)\RTAKE\12-Mar-2020\0\\#p 
 M062X/6-31G\\chk calc\\1,1\C,0,3.824482709,-1.14219544,1.17225369\H,0,
 4.799113079,-1.62961423,1.173808707\H,0,3.053614027,-1.916312598,1.160
 804944\H,0,-2.581128393,-2.999646773,-0.902128725\H,0,3.75960642,-0.53
 291794,2.07824618\H,0,3.765323683,-0.52154146,0.273951194\C,0,-2.40154
 2122,-0.705499021,0.492562549\C,0,-1.33365594,0.193207044,1.141270536\
 C,0,0.021967089,-0.47033751,0.950186539\N,0,-1.303304814,1.529148773,0
 .515945207\O,0,0.155929117,-1.611462803,0.51692019\O,0,1.024922388,0.3
 53392554,1.298656\C,0,-2.121889445,-0.918337302,-0.967112723\H,0,-3.39
 229932,-0.247402335,0.596496855\H,0,-2.419176945,-1.669900059,1.004436
 439\H,0,-1.526304416,0.239474424,2.221387894\H,0,-1.503902114,0.960750
 702,-1.170400229\H,0,-0.410560182,1.997532273,0.666150752\H,0,1.924402
 159,-0.039925506,1.230818645\N,0,-1.700457396,0.069239192,-1.694919761
 \O,0,-2.336854815,-2.071648312,-1.575178364\H,0,-2.071900591,2.1285565
 43,0.807834339\H,0,-1.514408501,-0.054510917,-2.685235696\\Version=ES6
 4L-G09RevD.01\State=1-A\HF=-532.901157\RMSD=5.101e-09\Dipole=-1.920291
 9,0.4856522,-0.2425686\Quadrupole=6.7356166,-2.1303518,-4.6052648,2.66
 30382,2.515998,0.2333924\PG=C01 [X(C5H13N2O3)]\\@


 Discoveries are often made by not following instructions,
 by going off the main road, by trying the untried.
 -- Frank Tyger
 Job cpu time:       0 days  0 hours  0 minutes 56.7 seconds.
 File lengths (MBytes):  RWF=      7 Int=      0 D2E=      0 Chk=      2 Scr=      1
 Normal termination of Gaussian 09 at Thu Mar 12 19:30:57 2020.
