 Entering Gaussian System, Link 0=g09
 Input=./h4_o21_13.gjf
 Output=./h4_o21_13.log
 Initial command:
 /usr/local/gaussian09d01/g09/l1.exe "/scr/Gau-22611.inp" -scrdir="/scr/"
 Entering Link 1 = /usr/local/gaussian09d01/g09/l1.exe PID=     22612.
  
 Copyright (c) 1988,1990,1992,1993,1995,1998,2003,2009,2013,
            Gaussian, Inc.  All Rights Reserved.
  
 This is part of the Gaussian(R) 09 program.  It is based on
 the Gaussian(R) 03 system (copyright 2003, Gaussian, Inc.),
 the Gaussian(R) 98 system (copyright 1998, Gaussian, Inc.),
 the Gaussian(R) 94 system (copyright 1995, Gaussian, Inc.),
 the Gaussian 92(TM) system (copyright 1992, Gaussian, Inc.),
 the Gaussian 90(TM) system (copyright 1990, Gaussian, Inc.),
 the Gaussian 88(TM) system (copyright 1988, Gaussian, Inc.),
 the Gaussian 86(TM) system (copyright 1986, Carnegie Mellon
 University), and the Gaussian 82(TM) system (copyright 1983,
 Carnegie Mellon University). Gaussian is a federally registered
 trademark of Gaussian, Inc.
  
 This software contains proprietary and confidential information,
 including trade secrets, belonging to Gaussian, Inc.
  
 This software is provided under written license and may be
 used, copied, transmitted, or stored only in accord with that
 written license.
  
 The following legend is applicable only to US Government
 contracts under FAR:
  
                    RESTRICTED RIGHTS LEGEND
  
 Use, reproduction and disclosure by the US Government is
 subject to restrictions as set forth in subparagraphs (a)
 and (c) of the Commercial Computer Software - Restricted
 Rights clause in FAR 52.227-19.
  
 Gaussian, Inc.
 340 Quinnipiac St., Bldg. 40, Wallingford CT 06492
  
  
 ---------------------------------------------------------------
 Warning -- This program may not be used in any manner that
 competes with the business of Gaussian, Inc. or will provide
 assistance to any competitor of Gaussian, Inc.  The licensee
 of this program is prohibited from giving any competitor of
 Gaussian, Inc. access to this program.  By using this program,
 the user acknowledges that Gaussian, Inc. is engaged in the
 business of creating and licensing software in the field of
 computational chemistry and represents and warrants to the
 licensee that it is not a competitor of Gaussian, Inc. and that
 it will not use this program in any manner prohibited above.
 ---------------------------------------------------------------
  

 Cite this work as:
 Gaussian 09, Revision D.01,
 M. J. Frisch, G. W. Trucks, H. B. Schlegel, G. E. Scuseria, 
 M. A. Robb, J. R. Cheeseman, G. Scalmani, V. Barone, B. Mennucci, 
 G. A. Petersson, H. Nakatsuji, M. Caricato, X. Li, H. P. Hratchian, 
 A. F. Izmaylov, J. Bloino, G. Zheng, J. L. Sonnenberg, M. Hada, 
 M. Ehara, K. Toyota, R. Fukuda, J. Hasegawa, M. Ishida, T. Nakajima, 
 Y. Honda, O. Kitao, H. Nakai, T. Vreven, J. A. Montgomery, Jr., 
 J. E. Peralta, F. Ogliaro, M. Bearpark, J. J. Heyd, E. Brothers, 
 K. N. Kudin, V. N. Staroverov, T. Keith, R. Kobayashi, J. Normand, 
 K. Raghavachari, A. Rendell, J. C. Burant, S. S. Iyengar, J. Tomasi, 
 M. Cossi, N. Rega, J. M. Millam, M. Klene, J. E. Knox, J. B. Cross, 
 V. Bakken, C. Adamo, J. Jaramillo, R. Gomperts, R. E. Stratmann, 
 O. Yazyev, A. J. Austin, R. Cammi, C. Pomelli, J. W. Ochterski, 
 R. L. Martin, K. Morokuma, V. G. Zakrzewski, G. A. Voth, 
 P. Salvador, J. J. Dannenberg, S. Dapprich, A. D. Daniels, 
 O. Farkas, J. B. Foresman, J. V. Ortiz, J. Cioslowski, 
 and D. J. Fox, Gaussian, Inc., Wallingford CT, 2013.
 
 ******************************************
 Gaussian 09:  ES64L-G09RevD.01 24-Apr-2013
                12-Mar-2020 
 ******************************************
 --------------
 #p M062X/6-31G
 --------------
 1/38=1/1;
 2/12=2,17=6,18=5,40=1/2;
 3/5=1,6=6,11=2,16=1,25=1,30=1,74=-55/1,2,3;
 4//1;
 5/5=2,38=5/2;
 6/7=2,8=2,9=2,10=2,28=1/1;
 99/5=1,9=1/99;
 Leave Link    1 at Thu Mar 12 19:30:57 2020, MaxMem=           0 cpu:         0.0
 (Enter /usr/local/gaussian09d01/g09/l101.exe)
 --------
 chk calc
 --------
 Symbolic Z-matrix:
 Charge =  1 Multiplicity = 1
 C                     3.82448  -1.1422    1.17225 
 H                     4.79911  -1.62961   1.17381 
 H                     3.05361  -1.91631   1.1608 
 H                    -2.60148  -3.07698  -0.84604 
 H                     3.75961  -0.53292   2.07825 
 H                     3.76532  -0.52154   0.27395 
 C                    -2.40154  -0.7055    0.49256 
 C                    -1.33366   0.19321   1.14127 
 C                     0.02197  -0.47034   0.95019 
 N                    -1.3033    1.52915   0.51595 
 O                     0.15593  -1.61146   0.51692 
 O                     1.02492   0.35339   1.29866 
 C                    -2.12189  -0.91834  -0.96711 
 H                    -3.3923   -0.2474    0.5965 
 H                    -2.41918  -1.6699    1.00444 
 H                    -1.5263    0.23947   2.22139 
 H                    -1.5039    0.96075  -1.1704 
 H                    -0.41056   1.99753   0.66615 
 H                     1.9244   -0.03993   1.23082 
 N                    -1.70046   0.06924  -1.69492 
 O                    -2.33685  -2.07165  -1.57518 
 H                    -2.0719    2.12856   0.80783 
 H                    -1.51441  -0.05451  -2.68524 
 
 NAtoms=     23 NQM=       23 NQMF=       0 NMMI=      0 NMMIF=      0
                NMic=       0 NMicF=      0.
                    Isotopes and Nuclear Properties:
 (Nuclear quadrupole moments (NQMom) in fm**2, nuclear magnetic moments (NMagM)
  in nuclear magnetons)

  Atom         1           2           3           4           5           6           7           8           9          10
 IAtWgt=          12           1           1           1           1           1          12          12          12          14
 AtmWgt=  12.0000000   1.0078250   1.0078250   1.0078250   1.0078250   1.0078250  12.0000000  12.0000000  12.0000000  14.0030740
 NucSpn=           0           1           1           1           1           1           0           0           0           2
 AtZEff=   0.0000000   0.0000000   0.0000000   0.0000000   0.0000000   0.0000000   0.0000000   0.0000000   0.0000000   0.0000000
 NQMom=    0.0000000   0.0000000   0.0000000   0.0000000   0.0000000   0.0000000   0.0000000   0.0000000   0.0000000   2.0440000
 NMagM=    0.0000000   2.7928460   2.7928460   2.7928460   2.7928460   2.7928460   0.0000000   0.0000000   0.0000000   0.4037610
 AtZNuc=   6.0000000   1.0000000   1.0000000   1.0000000   1.0000000   1.0000000   6.0000000   6.0000000   6.0000000   7.0000000

  Atom        11          12          13          14          15          16          17          18          19          20
 IAtWgt=          16          16          12           1           1           1           1           1           1          14
 AtmWgt=  15.9949146  15.9949146  12.0000000   1.0078250   1.0078250   1.0078250   1.0078250   1.0078250   1.0078250  14.0030740
 NucSpn=           0           0           0           1           1           1           1           1           1           2
 AtZEff=   0.0000000   0.0000000   0.0000000   0.0000000   0.0000000   0.0000000   0.0000000   0.0000000   0.0000000   0.0000000
 NQMom=    0.0000000   0.0000000   0.0000000   0.0000000   0.0000000   0.0000000   0.0000000   0.0000000   0.0000000   2.0440000
 NMagM=    0.0000000   0.0000000   0.0000000   2.7928460   2.7928460   2.7928460   2.7928460   2.7928460   2.7928460   0.4037610
 AtZNuc=   8.0000000   8.0000000   6.0000000   1.0000000   1.0000000   1.0000000   1.0000000   1.0000000   1.0000000   7.0000000

  Atom        21          22          23
 IAtWgt=          16           1           1
 AtmWgt=  15.9949146   1.0078250   1.0078250
 NucSpn=           0           1           1
 AtZEff=   0.0000000   0.0000000   0.0000000
 NQMom=    0.0000000   0.0000000   0.0000000
 NMagM=    0.0000000   2.7928460   2.7928460
 AtZNuc=   8.0000000   1.0000000   1.0000000
 Leave Link  101 at Thu Mar 12 19:30:57 2020, MaxMem=    33554432 cpu:         0.0
 (Enter /usr/local/gaussian09d01/g09/l202.exe)
                          Input orientation:                          
 ---------------------------------------------------------------------
 Center     Atomic      Atomic             Coordinates (Angstroms)
 Number     Number       Type             X           Y           Z
 ---------------------------------------------------------------------
      1          6           0        3.824483   -1.142195    1.172254
      2          1           0        4.799113   -1.629614    1.173809
      3          1           0        3.053614   -1.916313    1.160805
      4          1           0       -2.601485   -3.076980   -0.846041
      5          1           0        3.759606   -0.532918    2.078246
      6          1           0        3.765324   -0.521541    0.273951
      7          6           0       -2.401542   -0.705499    0.492563
      8          6           0       -1.333656    0.193207    1.141271
      9          6           0        0.021967   -0.470338    0.950187
     10          7           0       -1.303305    1.529149    0.515945
     11          8           0        0.155929   -1.611463    0.516920
     12          8           0        1.024922    0.353393    1.298656
     13          6           0       -2.121889   -0.918337   -0.967113
     14          1           0       -3.392299   -0.247402    0.596497
     15          1           0       -2.419177   -1.669900    1.004436
     16          1           0       -1.526304    0.239474    2.221388
     17          1           0       -1.503902    0.960751   -1.170400
     18          1           0       -0.410560    1.997532    0.666151
     19          1           0        1.924402   -0.039926    1.230819
     20          7           0       -1.700457    0.069239   -1.694920
     21          8           0       -2.336855   -2.071648   -1.575178
     22          1           0       -2.071901    2.128557    0.807834
     23          1           0       -1.514409   -0.054511   -2.685236
 ---------------------------------------------------------------------
                    Distance matrix (angstroms):
                    1          2          3          4          5
     1  C    0.000000
     2  H    1.089717   0.000000
     3  H    1.092532   1.768935   0.000000
     4  H    7.007850   7.806632   6.111851   0.000000
     5  H    1.093732   1.761058   1.803858   7.448972   0.000000
     6  H    1.093462   1.762467   1.799563   6.951323   1.804340
     7  C    6.278222   7.291606   5.627730   2.730524   6.364270
     8  C    5.328288   6.398015   4.868120   4.031243   5.229388
     9  C    3.867794   4.920879   3.365425   4.111389   3.904662
    10  N    5.819023   6.902903   5.591940   4.975610   5.685594
    11  O    3.756056   4.689455   2.983974   3.407159   4.072774
    12  O    3.176523   4.265257   3.047319   5.433048   2.978557
    13  C    6.323476   7.279405   5.684173   2.214590   6.634362
    14  H    7.294799   8.327247   6.682328   3.273044   7.309368
    15  H    6.268167   7.220389   5.480567   2.331819   6.373630
    16  H    5.624999   6.678459   5.171838   4.643706   5.343962
    17  H    6.188869   7.206477   5.872220   4.196804   6.363118
    18  H    5.296189   6.368250   5.250083   5.730406   5.078138
    19  H    2.197438   3.285472   2.191084   5.832726   2.080661
    20  N    6.341389   7.304801   5.890567   3.380997   6.664208
    21  O    6.809871   7.659919   6.047056   1.269788   7.272004
    22  H    6.752626   7.840192   6.538842   5.487565   6.534820
    23  H    6.675855   7.565298   6.255011   3.701309   7.122841
                    6          7          8          9         10
     6  H    0.000000
     7  C    6.173481   0.000000
     8  C    5.221370   1.539115   0.000000
     9  C    3.804292   2.477522   1.521354   0.000000
    10  N    5.473106   2.490045   1.475362   2.437797   0.000000
    11  O    3.778186   2.713305   2.421882   1.227938   3.463063
    12  O    3.053740   3.675826   2.369245   1.343831   2.723175
    13  C    6.029674   1.501385   2.510403   2.910818   2.976530
    14  H    7.170129   1.096474   2.174610   3.439769   2.743450
    15  H    6.332486   1.091969   2.160613   2.720492   3.423114
    16  H    5.689726   2.155888   1.098138   2.125307   2.149773
    17  H    5.661103   2.519443   2.441706   2.978788   1.790831
    18  H    4.892602   3.361625   2.081690   2.521535   1.019283
    19  H    2.129916   4.438671   3.267616   1.970601   3.659389
    20  N    5.839541   2.424215   2.862497   3.202261   2.678990
    21  O    6.561912   2.479133   3.676285   3.808636   4.290310
    22  H    6.432825   2.870528   2.098038   3.340478   1.017462
    23  H    6.070459   3.362914   3.838774   3.968584   3.577723
                   11         12         13         14         15
    11  O    0.000000
    12  O    2.286245   0.000000
    13  C    2.805572   4.080861   0.000000
    14  H    3.802225   4.512852   2.123434   0.000000
    15  H    2.621499   4.005259   2.130782   1.771124   0.000000
    16  H    3.026729   2.715358   3.444094   2.521757   2.433907
    17  H    3.495479   3.586095   1.988519   2.854401   3.533832
    18  H    3.656231   2.272415   3.754796   3.733008   4.195121
    19  H    2.471210   0.984055   4.687748   5.358426   4.644862
    20  N    3.341132   4.058317   1.297157   2.865865   3.290545
    21  O    3.286734   5.043936   1.321393   3.026220   2.612009
    22  H    4.362981   3.603113   3.526542   2.726407   3.819362
    23  H    3.932929   4.741938   2.016724   3.785954   4.128168
                   16         17         18         19         20
    16  H    0.000000
    17  H    3.467704   0.000000
    18  H    2.598926   2.375549   0.000000
    19  H    3.600926   4.303542   3.149942   0.000000
    20  N    3.923872   1.052876   3.310106   4.659557   0.000000
    21  O    4.517986   3.170662   5.029155   5.491796   2.236680
    22  H    2.421661   2.366391   1.672511   4.566362   3.262290
    23  H    4.915437   1.823621   4.081808   5.211632   1.015211
                   21         22         23
    21  O    0.000000
    22  H    4.836390   0.000000
    23  H    2.444890   4.156696   0.000000
 Stoichiometry    C5H13N2O3(1+)
 Framework group  C1[X(C5H13N2O3)]
 Deg. of freedom    63
 Full point group                 C1      NOp   1
 Largest Abelian subgroup         C1      NOp   1
 Largest concise Abelian subgroup C1      NOp   1
                         Standard orientation:                         
 ---------------------------------------------------------------------
 Center     Atomic      Atomic             Coordinates (Angstroms)
 Number     Number       Type             X           Y           Z
 ---------------------------------------------------------------------
      1          6           0       -4.368476   -0.942852    0.325606
      2          1           0       -5.272210   -1.546118    0.408184
      3          1           0       -3.652448   -1.481149   -0.299829
      4          1           0        2.338795   -2.365429   -1.123105
      5          1           0       -4.650144    0.011802   -0.127769
      6          1           0       -3.972126   -0.799146    1.334523
      7          6           0        1.652209    0.273150   -0.973920
      8          6           0        0.420240    1.155011   -0.702901
      9          6           0       -0.763558    0.240679   -0.425161
     10          7           0        0.631997    2.029781    0.466128
     11          8           0       -0.726059   -0.975466   -0.590744
     12          8           0       -1.821902    0.932701    0.029695
     13          6           0        1.945679   -0.626993    0.191317
     14          1           0        2.530854    0.901751   -1.161266
     15          1           0        1.472492   -0.331652   -1.865161
     16          1           0        0.189606    1.721514   -1.614926
     17          1           0        1.454978    0.804980    1.480841
     18          1           0       -0.250071    2.342234    0.870191
     19          1           0       -2.629591    0.393740    0.189462
     20          7           0        1.833501   -0.174310    1.401734
     21          8           0        2.372284   -1.869059    0.045165
     22          1           0        1.234171    2.826130    0.270054
     23          1           0        2.036059   -0.766336    2.201190
 ---------------------------------------------------------------------
 Rotational constants (GHZ):      1.7956085      0.7170049      0.6058326
 Leave Link  202 at Thu Mar 12 19:30:57 2020, MaxMem=    33554432 cpu:         0.0
 (Enter /usr/local/gaussian09d01/g09/l301.exe)
 Standard basis: 6-31G (6D, 7F)
 Ernie: Thresh=  0.10000D-02 Tol=  0.10000D-05 Strict=F.
 There are   116 symmetry adapted cartesian basis functions of A   symmetry.
 There are   116 symmetry adapted basis functions of A   symmetry.
   116 basis functions,   272 primitive gaussians,   116 cartesian basis functions
    40 alpha electrons       40 beta electrons
       nuclear repulsion energy       585.1094276933 Hartrees.
 IExCor= 4336 DFT=T Ex+Corr=M062X ExCW=0 ScaHFX=  0.540000
 ScaDFX=  1.000000  1.000000  1.000000  1.000000 ScalE2=  1.000000  1.000000
 IRadAn=      0 IRanWt=     -1 IRanGd=            0 ICorTp=0 IEmpDi=  4
 NAtoms=   23 NActive=   23 NUniq=   23 SFac= 1.00D+00 NAtFMM=   60 NAOKFM=F Big=F
 Integral buffers will be    131072 words long.
 Raffenetti 2 integral format.
 Two-electron integral symmetry is turned on.
 Leave Link  301 at Thu Mar 12 19:30:57 2020, MaxMem=    33554432 cpu:         0.0
 (Enter /usr/local/gaussian09d01/g09/l302.exe)
 NPDir=0 NMtPBC=     1 NCelOv=     1 NCel=       1 NClECP=     1 NCelD=      1
         NCelK=      1 NCelE2=     1 NClLst=     1 CellRange=     0.0.
 One-electron integrals computed using PRISM.
 NBasis=   116 RedAO= T EigKep=  3.54D-03  NBF=   116
 NBsUse=   116 1.00D-06 EigRej= -1.00D+00 NBFU=   116
 Precomputing XC quadrature grid using
 IXCGrd= 4 IRadAn=           0 IRanWt=          -1 IRanGd=           0 AccXCQ= 0.00D+00.
 Generated NRdTot=       0 NPtTot=           0 NUsed=           0 NTot=          32
 NSgBfM=   115   115   115   115   115 MxSgAt=    23 MxSgA2=    23.
 Leave Link  302 at Thu Mar 12 19:30:58 2020, MaxMem=    33554432 cpu:         0.3
 (Enter /usr/local/gaussian09d01/g09/l303.exe)
 DipDrv:  MaxL=1.
 Leave Link  303 at Thu Mar 12 19:30:58 2020, MaxMem=    33554432 cpu:         0.0
 (Enter /usr/local/gaussian09d01/g09/l401.exe)
 ExpMin= 1.61D-01 ExpMax= 5.48D+03 ExpMxC= 8.25D+02 IAcc=1 IRadAn=         1 AccDes= 0.00D+00
 Harris functional with IExCor= 1009 and IRadAn=       1 diagonalized for initial guess.
 HarFok:  IExCor= 1009 AccDes= 0.00D+00 IRadAn=         1 IDoV= 1 UseB2=F ITyADJ=14
 ICtDFT=  3500011 ScaDFX=  1.000000  1.000000  1.000000  1.000000
 FoFCou: FMM=F IPFlag=           0 FMFlag=      100000 FMFlg1=           0
         NFxFlg=           0 DoJE=T BraDBF=F KetDBF=T FulRan=T
         wScrn=  0.000000 ICntrl=     500 IOpCl=  0 I1Cent=   200000004 NGrid=           0
         NMat0=    1 NMatS0=      1 NMatT0=    0 NMatD0=    1 NMtDS0=    0 NMtDT0=    0
 Petite list used in FoFCou.
 Harris En= -532.709638852325    
 JPrj=0 DoOrth=F DoCkMO=F.
 Leave Link  401 at Thu Mar 12 19:30:59 2020, MaxMem=    33554432 cpu:         0.8
 (Enter /usr/local/gaussian09d01/g09/l502.exe)
 Closed shell SCF:
 Using DIIS extrapolation, IDIIS=  1040.
 Integral symmetry usage will be decided dynamically.
 Keep R1 ints in memory in canonical form, NReq=24030401.
 IVT=       60528 IEndB=       60528 NGot=    33554432 MDV=    10465614
 LenX=    10465614 LenY=    10451717
 Requested convergence on RMS density matrix=1.00D-08 within 128 cycles.
 Requested convergence on MAX density matrix=1.00D-06.
 Requested convergence on             energy=1.00D-06.
 No special actions if energy rises.
 FoFCou: FMM=F IPFlag=           0 FMFlag=           0 FMFlg1=           0
         NFxFlg=           0 DoJE=F BraDBF=F KetDBF=F FulRan=T
         wScrn=  0.000000 ICntrl=     600 IOpCl=  0 I1Cent=           0 NGrid=           0
         NMat0=    1 NMatS0=   6786 NMatT0=    0 NMatD0=    1 NMtDS0=    0 NMtDT0=    0
 Symmetry not used in FoFCou.
 Integral accuracy reduced to 1.0D-05 until final iterations.

 Cycle   1  Pass 0  IDiag  1:
 E= -532.612698950433    
 DIIS: error= 5.45D-02 at cycle   1 NSaved=   1.
 NSaved= 1 IEnMin= 1 EnMin= -532.612698950433     IErMin= 1 ErrMin= 5.45D-02
 ErrMax= 5.45D-02  0.00D+00 EMaxC= 1.00D-01 BMatC= 3.11D-01 BMatP= 3.11D-01
 IDIUse=3 WtCom= 4.55D-01 WtEn= 5.45D-01
 Coeff-Com:  0.100D+01
 Coeff-En:   0.100D+01
 Coeff:      0.100D+01
 Gap=     0.303 Goal=   None    Shift=    0.000
 GapD=    0.303 DampG=1.000 DampE=0.500 DampFc=0.5000 IDamp=-1.
 Damping current iteration by 5.00D-01
 RMSDP=8.30D-03 MaxDP=1.64D-01              OVMax= 1.56D-01

 Cycle   2  Pass 0  IDiag  1:
 E= -532.738627004985     Delta-E=       -0.125928054552 Rises=F Damp=T
 DIIS: error= 1.05D-02 at cycle   2 NSaved=   2.
 NSaved= 2 IEnMin= 2 EnMin= -532.738627004985     IErMin= 2 ErrMin= 1.05D-02
 ErrMax= 1.05D-02  0.00D+00 EMaxC= 1.00D-01 BMatC= 1.90D-02 BMatP= 3.11D-01
 IDIUse=3 WtCom= 8.95D-01 WtEn= 1.05D-01
 Coeff-Com:  0.340D-01 0.966D+00
 Coeff-En:   0.347D-01 0.965D+00
 Coeff:      0.341D-01 0.966D+00
 Gap=     0.341 Goal=   None    Shift=    0.000
 RMSDP=2.13D-03 MaxDP=3.40D-02 DE=-1.26D-01 OVMax= 1.09D-01

 Cycle   3  Pass 0  IDiag  1:
 E= -532.869138676931     Delta-E=       -0.130511671946 Rises=F Damp=F
 DIIS: error= 1.17D-02 at cycle   3 NSaved=   3.
 NSaved= 3 IEnMin= 3 EnMin= -532.869138676931     IErMin= 2 ErrMin= 1.05D-02
 ErrMax= 1.17D-02  0.00D+00 EMaxC= 1.00D-01 BMatC= 1.48D-02 BMatP= 1.90D-02
 IDIUse=3 WtCom= 8.83D-01 WtEn= 1.17D-01
 Coeff-Com: -0.231D-01 0.471D+00 0.552D+00
 Coeff-En:   0.000D+00 0.000D+00 0.100D+01
 Coeff:     -0.204D-01 0.416D+00 0.604D+00
 Gap=     0.326 Goal=   None    Shift=    0.000
 RMSDP=1.39D-03 MaxDP=3.58D-02 DE=-1.31D-01 OVMax= 5.53D-02

 Cycle   4  Pass 0  IDiag  1:
 E= -532.878680065952     Delta-E=       -0.009541389021 Rises=F Damp=F
 DIIS: error= 7.59D-03 at cycle   4 NSaved=   4.
 NSaved= 4 IEnMin= 4 EnMin= -532.878680065952     IErMin= 4 ErrMin= 7.59D-03
 ErrMax= 7.59D-03  0.00D+00 EMaxC= 1.00D-01 BMatC= 3.71D-03 BMatP= 1.48D-02
 IDIUse=3 WtCom= 9.24D-01 WtEn= 7.59D-02
 Coeff-Com: -0.653D-02 0.340D-01 0.339D+00 0.634D+00
 Coeff-En:   0.000D+00 0.000D+00 0.199D+00 0.801D+00
 Coeff:     -0.604D-02 0.314D-01 0.328D+00 0.646D+00
 Gap=     0.323 Goal=   None    Shift=    0.000
 RMSDP=5.32D-04 MaxDP=1.14D-02 DE=-9.54D-03 OVMax= 1.81D-02

 Cycle   5  Pass 0  IDiag  1:
 E= -532.881364342882     Delta-E=       -0.002684276930 Rises=F Damp=F
 DIIS: error= 1.14D-03 at cycle   5 NSaved=   5.
 NSaved= 5 IEnMin= 5 EnMin= -532.881364342882     IErMin= 5 ErrMin= 1.14D-03
 ErrMax= 1.14D-03  0.00D+00 EMaxC= 1.00D-01 BMatC= 1.67D-04 BMatP= 3.71D-03
 IDIUse=3 WtCom= 9.89D-01 WtEn= 1.14D-02
 Coeff-Com: -0.910D-03-0.796D-02 0.144D+00 0.334D+00 0.531D+00
 Coeff-En:   0.000D+00 0.000D+00 0.000D+00 0.000D+00 0.100D+01
 Coeff:     -0.900D-03-0.787D-02 0.142D+00 0.331D+00 0.536D+00
 Gap=     0.320 Goal=   None    Shift=    0.000
 RMSDP=1.07D-04 MaxDP=2.11D-03 DE=-2.68D-03 OVMax= 3.67D-03

 Cycle   6  Pass 0  IDiag  1:
 E= -532.881510927664     Delta-E=       -0.000146584782 Rises=F Damp=F
 DIIS: error= 2.91D-04 at cycle   6 NSaved=   6.
 NSaved= 6 IEnMin= 6 EnMin= -532.881510927664     IErMin= 6 ErrMin= 2.91D-04
 ErrMax= 2.91D-04  0.00D+00 EMaxC= 1.00D-01 BMatC= 4.37D-06 BMatP= 1.67D-04
 IDIUse=3 WtCom= 9.97D-01 WtEn= 2.91D-03
 Coeff-Com:  0.664D-03-0.390D-02 0.130D-01 0.237D-01 0.126D+00 0.841D+00
 Coeff-En:   0.000D+00 0.000D+00 0.000D+00 0.000D+00 0.000D+00 0.100D+01
 Coeff:      0.662D-03-0.389D-02 0.130D-01 0.236D-01 0.125D+00 0.841D+00
 Gap=     0.321 Goal=   None    Shift=    0.000
 RMSDP=2.88D-05 MaxDP=4.16D-04 DE=-1.47D-04 OVMax= 5.79D-04

 Cycle   7  Pass 0  IDiag  1:
 E= -532.881515244393     Delta-E=       -0.000004316729 Rises=F Damp=F
 DIIS: error= 8.36D-05 at cycle   7 NSaved=   7.
 NSaved= 7 IEnMin= 7 EnMin= -532.881515244393     IErMin= 7 ErrMin= 8.36D-05
 ErrMax= 8.36D-05  0.00D+00 EMaxC= 1.00D-01 BMatC= 5.57D-07 BMatP= 4.37D-06
 IDIUse=1 WtCom= 1.00D+00 WtEn= 0.00D+00
 Coeff-Com:  0.458D-03-0.684D-03-0.130D-01-0.363D-01-0.189D-01 0.288D+00
 Coeff-Com:  0.780D+00
 Coeff:      0.458D-03-0.684D-03-0.130D-01-0.363D-01-0.189D-01 0.288D+00
 Coeff:      0.780D+00
 Gap=     0.321 Goal=   None    Shift=    0.000
 RMSDP=1.26D-05 MaxDP=2.07D-04 DE=-4.32D-06 OVMax= 2.83D-04

 Cycle   8  Pass 0  IDiag  1:
 E= -532.881515917690     Delta-E=       -0.000000673297 Rises=F Damp=F
 DIIS: error= 2.72D-05 at cycle   8 NSaved=   8.
 NSaved= 8 IEnMin= 8 EnMin= -532.881515917690     IErMin= 8 ErrMin= 2.72D-05
 ErrMax= 2.72D-05  0.00D+00 EMaxC= 1.00D-01 BMatC= 6.89D-08 BMatP= 5.57D-07
 IDIUse=1 WtCom= 1.00D+00 WtEn= 0.00D+00
 Coeff-Com:  0.123D-03 0.125D-03-0.594D-02-0.163D-01-0.195D-01 0.190D-01
 Coeff-Com:  0.300D+00 0.722D+00
 Coeff:      0.123D-03 0.125D-03-0.594D-02-0.163D-01-0.195D-01 0.190D-01
 Coeff:      0.300D+00 0.722D+00
 Gap=     0.321 Goal=   None    Shift=    0.000
 RMSDP=3.81D-06 MaxDP=5.84D-05 DE=-6.73D-07 OVMax= 8.72D-05

 Initial convergence to 1.0D-05 achieved.  Increase integral accuracy.
 Cycle   9  Pass 1  IDiag  1:
 E= -532.881665539313     Delta-E=       -0.000149621623 Rises=F Damp=F
 DIIS: error= 1.25D-04 at cycle   1 NSaved=   1.
 NSaved= 1 IEnMin= 1 EnMin= -532.881665539313     IErMin= 1 ErrMin= 1.25D-04
 ErrMax= 1.25D-04  0.00D+00 EMaxC= 1.00D-01 BMatC= 1.77D-06 BMatP= 1.77D-06
 IDIUse=3 WtCom= 9.99D-01 WtEn= 1.25D-03
 Coeff-Com:  0.100D+01
 Coeff-En:   0.100D+01
 Coeff:      0.100D+01
 Gap=     0.321 Goal=   None    Shift=    0.000
 RMSDP=3.81D-06 MaxDP=5.84D-05 DE=-1.50D-04 OVMax= 1.98D-04

 Cycle  10  Pass 1  IDiag  1:
 E= -532.881667252355     Delta-E=       -0.000001713043 Rises=F Damp=F
 DIIS: error= 7.20D-05 at cycle   2 NSaved=   2.
 NSaved= 2 IEnMin= 2 EnMin= -532.881667252355     IErMin= 2 ErrMin= 7.20D-05
 ErrMax= 7.20D-05  0.00D+00 EMaxC= 1.00D-01 BMatC= 2.88D-07 BMatP= 1.77D-06
 IDIUse=1 WtCom= 1.00D+00 WtEn= 0.00D+00
 Coeff-Com:  0.201D+00 0.799D+00
 Coeff:      0.201D+00 0.799D+00
 Gap=     0.321 Goal=   None    Shift=    0.000
 RMSDP=6.69D-06 MaxDP=1.37D-04 DE=-1.71D-06 OVMax= 1.51D-04

 Cycle  11  Pass 1  IDiag  1:
 E= -532.881667477667     Delta-E=       -0.000000225312 Rises=F Damp=F
 DIIS: error= 3.30D-05 at cycle   3 NSaved=   3.
 NSaved= 3 IEnMin= 3 EnMin= -532.881667477667     IErMin= 3 ErrMin= 3.30D-05
 ErrMax= 3.30D-05  0.00D+00 EMaxC= 1.00D-01 BMatC= 9.57D-08 BMatP= 2.88D-07
 IDIUse=1 WtCom= 1.00D+00 WtEn= 0.00D+00
 Coeff-Com: -0.443D-01 0.344D+00 0.700D+00
 Coeff:     -0.443D-01 0.344D+00 0.700D+00
 Gap=     0.321 Goal=   None    Shift=    0.000
 RMSDP=3.23D-06 MaxDP=8.14D-05 DE=-2.25D-07 OVMax= 5.01D-05

 Cycle  12  Pass 1  IDiag  1:
 E= -532.881667561327     Delta-E=       -0.000000083660 Rises=F Damp=F
 DIIS: error= 6.05D-06 at cycle   4 NSaved=   4.
 NSaved= 4 IEnMin= 4 EnMin= -532.881667561327     IErMin= 4 ErrMin= 6.05D-06
 ErrMax= 6.05D-06  0.00D+00 EMaxC= 1.00D-01 BMatC= 8.14D-09 BMatP= 9.57D-08
 IDIUse=1 WtCom= 1.00D+00 WtEn= 0.00D+00
 Coeff-Com: -0.300D-01 0.159D+00 0.373D+00 0.499D+00
 Coeff:     -0.300D-01 0.159D+00 0.373D+00 0.499D+00
 Gap=     0.321 Goal=   None    Shift=    0.000
 RMSDP=7.79D-07 MaxDP=2.08D-05 DE=-8.37D-08 OVMax= 2.51D-05

 Cycle  13  Pass 1  IDiag  1:
 E= -532.881667567807     Delta-E=       -0.000000006480 Rises=F Damp=F
 DIIS: error= 2.79D-06 at cycle   5 NSaved=   5.
 NSaved= 5 IEnMin= 5 EnMin= -532.881667567807     IErMin= 5 ErrMin= 2.79D-06
 ErrMax= 2.79D-06  0.00D+00 EMaxC= 1.00D-01 BMatC= 4.90D-10 BMatP= 8.14D-09
 IDIUse=1 WtCom= 1.00D+00 WtEn= 0.00D+00
 Coeff-Com: -0.406D-02 0.173D-02 0.192D-01 0.184D+00 0.799D+00
 Coeff:     -0.406D-02 0.173D-02 0.192D-01 0.184D+00 0.799D+00
 Gap=     0.321 Goal=   None    Shift=    0.000
 RMSDP=3.17D-07 MaxDP=5.62D-06 DE=-6.48D-09 OVMax= 7.30D-06

 Cycle  14  Pass 1  IDiag  1:
 E= -532.881667568199     Delta-E=       -0.000000000392 Rises=F Damp=F
 DIIS: error= 1.25D-06 at cycle   6 NSaved=   6.
 NSaved= 6 IEnMin= 6 EnMin= -532.881667568199     IErMin= 6 ErrMin= 1.25D-06
 ErrMax= 1.25D-06  0.00D+00 EMaxC= 1.00D-01 BMatC= 1.46D-10 BMatP= 4.90D-10
 IDIUse=1 WtCom= 1.00D+00 WtEn= 0.00D+00
 Coeff-Com:  0.195D-02-0.201D-01-0.396D-01 0.455D-01 0.449D+00 0.563D+00
 Coeff:      0.195D-02-0.201D-01-0.396D-01 0.455D-01 0.449D+00 0.563D+00
 Gap=     0.321 Goal=   None    Shift=    0.000
 RMSDP=9.69D-08 MaxDP=2.77D-06 DE=-3.92D-10 OVMax= 4.29D-06

 Cycle  15  Pass 1  IDiag  1:
 E= -532.881667568319     Delta-E=       -0.000000000120 Rises=F Damp=F
 DIIS: error= 3.17D-07 at cycle   7 NSaved=   7.
 NSaved= 7 IEnMin= 7 EnMin= -532.881667568319     IErMin= 7 ErrMin= 3.17D-07
 ErrMax= 3.17D-07  0.00D+00 EMaxC= 1.00D-01 BMatC= 4.32D-12 BMatP= 1.46D-10
 IDIUse=1 WtCom= 1.00D+00 WtEn= 0.00D+00
 Coeff-Com:  0.598D-03-0.337D-02-0.833D-02-0.192D-02-0.645D-02 0.114D+00
 Coeff-Com:  0.905D+00
 Coeff:      0.598D-03-0.337D-02-0.833D-02-0.192D-02-0.645D-02 0.114D+00
 Coeff:      0.905D+00
 Gap=     0.321 Goal=   None    Shift=    0.000
 RMSDP=3.91D-08 MaxDP=6.46D-07 DE=-1.20D-10 OVMax= 1.02D-06

 Cycle  16  Pass 1  IDiag  1:
 E= -532.881667568322     Delta-E=       -0.000000000003 Rises=F Damp=F
 DIIS: error= 1.08D-07 at cycle   8 NSaved=   8.
 NSaved= 8 IEnMin= 8 EnMin= -532.881667568322     IErMin= 8 ErrMin= 1.08D-07
 ErrMax= 1.08D-07  0.00D+00 EMaxC= 1.00D-01 BMatC= 1.40D-12 BMatP= 4.32D-12
 IDIUse=1 WtCom= 1.00D+00 WtEn= 0.00D+00
 Coeff-Com:  0.108D-03 0.306D-03-0.334D-03-0.532D-02-0.551D-01 0.477D-02
 Coeff-Com:  0.498D+00 0.558D+00
 Coeff:      0.108D-03 0.306D-03-0.334D-03-0.532D-02-0.551D-01 0.477D-02
 Coeff:      0.498D+00 0.558D+00
 Gap=     0.321 Goal=   None    Shift=    0.000
 RMSDP=1.15D-08 MaxDP=2.52D-07 DE=-3.18D-12 OVMax= 2.71D-07

 Cycle  17  Pass 1  IDiag  1:
 E= -532.881667568333     Delta-E=       -0.000000000011 Rises=F Damp=F
 DIIS: error= 2.95D-08 at cycle   9 NSaved=   9.
 NSaved= 9 IEnMin= 9 EnMin= -532.881667568333     IErMin= 9 ErrMin= 2.95D-08
 ErrMax= 2.95D-08  0.00D+00 EMaxC= 1.00D-01 BMatC= 7.62D-14 BMatP= 1.40D-12
 IDIUse=1 WtCom= 1.00D+00 WtEn= 0.00D+00
 Coeff-Com: -0.511D-04 0.567D-03 0.110D-02-0.851D-03-0.150D-01-0.132D-01
 Coeff-Com:  0.249D-02 0.168D+00 0.857D+00
 Coeff:     -0.511D-04 0.567D-03 0.110D-02-0.851D-03-0.150D-01-0.132D-01
 Coeff:      0.249D-02 0.168D+00 0.857D+00
 Gap=     0.321 Goal=   None    Shift=    0.000
 RMSDP=4.85D-09 MaxDP=8.19D-08 DE=-1.11D-11 OVMax= 2.03D-07

 SCF Done:  E(RM062X) =  -532.881667568     A.U. after   17 cycles
            NFock= 17  Conv=0.48D-08     -V/T= 2.0060
 KE= 5.296803518602D+02 PE=-2.402340434442D+03 EE= 7.546689873202D+02
 Leave Link  502 at Thu Mar 12 19:31:55 2020, MaxMem=    33554432 cpu:        56.8
 (Enter /usr/local/gaussian09d01/g09/l601.exe)
 Copying SCF densities to generalized density rwf, IOpCl= 0 IROHF=0.

 **********************************************************************

            Population analysis using the SCF density.

 **********************************************************************

 Orbital symmetries:
       Occupied  (A) (A) (A) (A) (A) (A) (A) (A) (A) (A) (A) (A)
                 (A) (A) (A) (A) (A) (A) (A) (A) (A) (A) (A) (A)
                 (A) (A) (A) (A) (A) (A) (A) (A) (A) (A) (A) (A)
                 (A) (A) (A) (A)
       Virtual   (A) (A) (A) (A) (A) (A) (A) (A) (A) (A) (A) (A)
                 (A) (A) (A) (A) (A) (A) (A) (A) (A) (A) (A) (A)
                 (A) (A) (A) (A) (A) (A) (A) (A) (A) (A) (A) (A)
                 (A) (A) (A) (A) (A) (A) (A) (A) (A) (A) (A) (A)
                 (A) (A) (A) (A) (A) (A) (A) (A) (A) (A) (A) (A)
                 (A) (A) (A) (A) (A) (A) (A) (A) (A) (A) (A) (A)
                 (A) (A) (A) (A)
 The electronic state is 1-A.
 Alpha  occ. eigenvalues --  -19.89494 -19.83934 -19.80401 -14.98220 -14.92737
 Alpha  occ. eigenvalues --  -10.88931 -10.86044 -10.77742 -10.75212 -10.63029
 Alpha  occ. eigenvalues --   -1.40265  -1.39800  -1.31117  -1.24222  -1.18160
 Alpha  occ. eigenvalues --   -1.06072  -0.96482  -0.90193  -0.89299  -0.85697
 Alpha  occ. eigenvalues --   -0.83377  -0.78678  -0.75770  -0.73814  -0.73170
 Alpha  occ. eigenvalues --   -0.72183  -0.71442  -0.68903  -0.66051  -0.64283
 Alpha  occ. eigenvalues --   -0.63468  -0.60852  -0.60317  -0.57039  -0.56826
 Alpha  occ. eigenvalues --   -0.55891  -0.55615  -0.54006  -0.51452  -0.49114
 Alpha virt. eigenvalues --   -0.17031  -0.15140  -0.12104  -0.03395  -0.00966
 Alpha virt. eigenvalues --   -0.00442   0.01150   0.01894   0.04326   0.05193
 Alpha virt. eigenvalues --    0.06817   0.07561   0.08057   0.10185   0.11143
 Alpha virt. eigenvalues --    0.11310   0.12400   0.13148   0.16048   0.18672
 Alpha virt. eigenvalues --    0.20286   0.24279   0.28212   0.39043   0.41818
 Alpha virt. eigenvalues --    0.43358   0.46170   0.46722   0.48253   0.48366
 Alpha virt. eigenvalues --    0.49883   0.52063   0.52194   0.54681   0.58391
 Alpha virt. eigenvalues --    0.58664   0.58947   0.61486   0.63607   0.64662
 Alpha virt. eigenvalues --    0.67840   0.70296   0.71426   0.75402   0.77149
 Alpha virt. eigenvalues --    0.78418   0.79312   0.81077   0.83415   0.84338
 Alpha virt. eigenvalues --    0.86391   0.87235   0.88014   0.88228   0.89065
 Alpha virt. eigenvalues --    0.92135   0.92501   0.94647   0.95288   0.96797
 Alpha virt. eigenvalues --    1.02517   1.04138   1.09230   1.11338   1.12551
 Alpha virt. eigenvalues --    1.15459   1.19353   1.28205   1.30137   1.33369
 Alpha virt. eigenvalues --    1.42160   1.53433   1.63877   1.75862   1.76481
 Alpha virt. eigenvalues --    1.86190
          Condensed to atoms (all electrons):
               1          2          3          4          5          6
     1  C    5.189151   0.375458   0.371651   0.000000   0.370216   0.370920
     2  H    0.375458   0.469424  -0.017969   0.000000  -0.019839  -0.020253
     3  H    0.371651  -0.017969   0.521379   0.000000  -0.029571  -0.030113
     4  H    0.000000   0.000000   0.000000   0.314251   0.000000   0.000000
     5  H    0.370216  -0.019839  -0.029571   0.000000   0.538204  -0.032207
     6  H    0.370920  -0.020253  -0.030113   0.000000  -0.032207   0.544852
     7  C    0.000000   0.000000  -0.000001  -0.007453   0.000000   0.000000
     8  C   -0.000004   0.000001   0.000083   0.000325  -0.000011  -0.000007
     9  C    0.000267   0.000037   0.001487   0.000028  -0.000153  -0.000131
    10  N    0.000000   0.000000  -0.000001   0.000015   0.000000   0.000000
    11  O   -0.001314   0.000015   0.003292   0.000267   0.000043   0.000016
    12  O   -0.005238   0.000175  -0.001624   0.000000  -0.000762  -0.000632
    13  C    0.000000   0.000000   0.000000  -0.010920   0.000000   0.000000
    14  H    0.000000   0.000000   0.000000   0.000220   0.000000   0.000000
    15  H    0.000000   0.000000   0.000000   0.004706   0.000000   0.000000
    16  H    0.000001   0.000000  -0.000002  -0.000002   0.000000   0.000000
    17  H    0.000000   0.000000   0.000000  -0.000031   0.000000   0.000000
    18  H   -0.000001   0.000000   0.000000   0.000000   0.000000   0.000000
    19  H    0.026921  -0.000937   0.002071   0.000000   0.005179   0.004701
    20  N    0.000000   0.000000   0.000000   0.004735   0.000000   0.000000
    21  O    0.000000   0.000000   0.000000   0.209833   0.000000   0.000000
    22  H    0.000000   0.000000   0.000000   0.000000   0.000000   0.000000
    23  H    0.000000   0.000000   0.000000  -0.000064   0.000000   0.000000
               7          8          9         10         11         12
     1  C    0.000000  -0.000004   0.000267   0.000000  -0.001314  -0.005238
     2  H    0.000000   0.000001   0.000037   0.000000   0.000015   0.000175
     3  H   -0.000001   0.000083   0.001487  -0.000001   0.003292  -0.001624
     4  H   -0.007453   0.000325   0.000028   0.000015   0.000267   0.000000
     5  H    0.000000  -0.000011  -0.000153   0.000000   0.000043  -0.000762
     6  H    0.000000  -0.000007  -0.000131   0.000000   0.000016  -0.000632
     7  C    5.420225   0.216351  -0.048203  -0.072607   0.007989   0.005379
     8  C    0.216351   5.570413   0.152161   0.193611  -0.124274  -0.148152
     9  C   -0.048203   0.152161   4.754134  -0.049433   0.495607   0.195098
    10  N   -0.072607   0.193611  -0.049433   7.094542   0.002196   0.001781
    11  O    0.007989  -0.124274   0.495607   0.002196   8.124706  -0.108601
    12  O    0.005379  -0.148152   0.195098   0.001781  -0.108601   8.417954
    13  C    0.259916  -0.017308  -0.007699  -0.007138   0.010929  -0.000534
    14  H    0.376200  -0.027602   0.005618  -0.001475   0.000415  -0.000026
    15  H    0.368390  -0.027662  -0.002092   0.003862   0.004703   0.000130
    16  H   -0.043510   0.385476  -0.027137  -0.035935   0.001089   0.000917
    17  H   -0.010346  -0.011020  -0.000593   0.094927   0.000199  -0.000074
    18  H    0.004839  -0.034224  -0.007488   0.320799   0.000224   0.013168
    19  H   -0.000159   0.005433  -0.018735  -0.000118  -0.000637   0.236987
    20  N   -0.094662   0.004578   0.000333  -0.075640  -0.003413   0.000056
    21  O   -0.056825   0.002665  -0.000575  -0.000161  -0.001628  -0.000001
    22  H   -0.000929  -0.029168   0.004145   0.322198  -0.000080  -0.000003
    23  H    0.003866  -0.000232  -0.000100   0.001488   0.000026   0.000003
              13         14         15         16         17         18
     1  C    0.000000   0.000000   0.000000   0.000001   0.000000  -0.000001
     2  H    0.000000   0.000000   0.000000   0.000000   0.000000   0.000000
     3  H    0.000000   0.000000   0.000000  -0.000002   0.000000   0.000000
     4  H   -0.010920   0.000220   0.004706  -0.000002  -0.000031   0.000000
     5  H    0.000000   0.000000   0.000000   0.000000   0.000000   0.000000
     6  H    0.000000   0.000000   0.000000   0.000000   0.000000   0.000000
     7  C    0.259916   0.376200   0.368390  -0.043510  -0.010346   0.004839
     8  C   -0.017308  -0.027602  -0.027662   0.385476  -0.011020  -0.034224
     9  C   -0.007699   0.005618  -0.002092  -0.027137  -0.000593  -0.007488
    10  N   -0.007138  -0.001475   0.003862  -0.035935   0.094927   0.320799
    11  O    0.010929   0.000415   0.004703   0.001089   0.000199   0.000224
    12  O   -0.000534  -0.000026   0.000130   0.000917  -0.000074   0.013168
    13  C    4.627589  -0.035379  -0.033017   0.004091  -0.018059   0.000193
    14  H   -0.035379   0.444201  -0.016603  -0.003252  -0.000282  -0.000053
    15  H   -0.033017  -0.016603   0.476376  -0.000700   0.000397  -0.000105
    16  H    0.004091  -0.003252  -0.000700   0.462815   0.000991   0.000985
    17  H   -0.018059  -0.000282   0.000397   0.000991   0.253789  -0.000495
    18  H    0.000193  -0.000053  -0.000105   0.000985  -0.000495   0.338019
    19  H   -0.000010   0.000002  -0.000002  -0.000249  -0.000020  -0.000261
    20  N    0.328597  -0.001608   0.004391  -0.000317   0.235664   0.000301
    21  O    0.299484   0.001101  -0.003407  -0.000070   0.001209   0.000002
    22  H   -0.000223   0.001621  -0.000073  -0.003818  -0.001558  -0.020869
    23  H   -0.019271  -0.000133  -0.000068   0.000010  -0.002299  -0.000013
              19         20         21         22         23
     1  C    0.026921   0.000000   0.000000   0.000000   0.000000
     2  H   -0.000937   0.000000   0.000000   0.000000   0.000000
     3  H    0.002071   0.000000   0.000000   0.000000   0.000000
     4  H    0.000000   0.004735   0.209833   0.000000  -0.000064
     5  H    0.005179   0.000000   0.000000   0.000000   0.000000
     6  H    0.004701   0.000000   0.000000   0.000000   0.000000
     7  C   -0.000159  -0.094662  -0.056825  -0.000929   0.003866
     8  C    0.005433   0.004578   0.002665  -0.029168  -0.000232
     9  C   -0.018735   0.000333  -0.000575   0.004145  -0.000100
    10  N   -0.000118  -0.075640  -0.000161   0.322198   0.001488
    11  O   -0.000637  -0.003413  -0.001628  -0.000080   0.000026
    12  O    0.236987   0.000056  -0.000001  -0.000003   0.000003
    13  C   -0.000010   0.328597   0.299484  -0.000223  -0.019271
    14  H    0.000002  -0.001608   0.001101   0.001621  -0.000133
    15  H   -0.000002   0.004391  -0.003407  -0.000073  -0.000068
    16  H   -0.000249  -0.000317  -0.000070  -0.003818   0.000010
    17  H   -0.000020   0.235664   0.001209  -0.001558  -0.002299
    18  H   -0.000261   0.000301   0.000002  -0.020869  -0.000013
    19  H    0.275292   0.000011   0.000000   0.000017  -0.000001
    20  N    0.000011   7.099235  -0.114129   0.000937   0.305799
    21  O    0.000000  -0.114129   8.217943   0.000002  -0.000589
    22  H    0.000017   0.000937   0.000002   0.370444  -0.000021
    23  H   -0.000001   0.305799  -0.000589  -0.000021   0.295399
 Mulliken charges:
               1
     1  C   -0.698028
     2  H    0.213888
     3  H    0.179316
     4  H    0.484091
     5  H    0.168901
     6  H    0.162853
     7  C   -0.328462
     8  C   -0.111434
     9  C    0.553424
    10  N   -0.792911
    11  O   -0.411770
    12  O   -0.606002
    13  C    0.618759
    14  H    0.257034
    15  H    0.220774
    16  H    0.258616
    17  H    0.457602
    18  H    0.384977
    19  H    0.464515
    20  N   -0.694870
    21  O   -0.554855
    22  H    0.357380
    23  H    0.416201
 Sum of Mulliken charges =   1.00000
 Mulliken charges with hydrogens summed into heavy atoms:
               1
     1  C    0.026930
     7  C    0.149346
     8  C    0.147181
     9  C    0.553424
    10  N   -0.050555
    11  O   -0.411770
    12  O   -0.141487
    13  C    0.618759
    20  N    0.178933
    21  O   -0.070764
 Electronic spatial extent (au):  <R**2>=           1997.0947
 Charge=              1.0000 electrons
 Dipole moment (field-independent basis, Debye):
    X=              4.7813    Y=              1.5683    Z=             -0.6649  Tot=              5.0757
 Quadrupole moment (field-independent basis, Debye-Ang):
   XX=            -33.6417   YY=            -47.0737   ZZ=            -47.1292
   XY=             -1.8678   XZ=             -4.6157   YZ=              2.5569
 Traceless Quadrupole moment (field-independent basis, Debye-Ang):
   XX=              8.9731   YY=             -4.4589   ZZ=             -4.5143
   XY=             -1.8678   XZ=             -4.6157   YZ=              2.5569
 Octapole moment (field-independent basis, Debye-Ang**2):
  XXX=            -21.8768  YYY=             12.4142  ZZZ=             10.7261  XYY=             26.5555
  XXY=            -19.0721  XXZ=             -3.2775  XZZ=             25.3627  YZZ=             -8.6263
  YYZ=             -9.8263  XYZ=              9.9757
 Hexadecapole moment (field-independent basis, Debye-Ang**3):
 XXXX=          -1440.3258 YYYY=           -420.9332 ZZZZ=           -196.6790 XXXY=             22.8021
 XXXZ=            -36.9500 YYYX=            -24.3592 YYYZ=             49.5743 ZZZX=             25.0042
 ZZZY=             -1.2926 XXYY=           -325.2072 XXZZ=           -285.5426 YYZZ=           -103.1664
 XXYZ=             17.8861 YYXZ=            -35.3624 ZZXY=            -36.1929
 N-N= 5.851094276933D+02 E-N=-2.402340435839D+03  KE= 5.296803518602D+02
 No NMR shielding tensors so no spin-rotation constants.
 Leave Link  601 at Thu Mar 12 19:31:56 2020, MaxMem=    33554432 cpu:         0.1
 (Enter /usr/local/gaussian09d01/g09/l9999.exe)
 1\1\GINC-KARURA\SP\RM062X\6-31G\C5H13N2O3(1+)\RTAKE\12-Mar-2020\0\\#p 
 M062X/6-31G\\chk calc\\1,1\C,0,3.824482709,-1.14219544,1.17225369\H,0,
 4.799113079,-1.62961423,1.173808707\H,0,3.053614027,-1.916312598,1.160
 804944\H,0,-2.601484524,-3.076979978,-0.846041255\H,0,3.75960642,-0.53
 291794,2.07824618\H,0,3.765323683,-0.52154146,0.273951194\C,0,-2.40154
 2122,-0.705499021,0.492562549\C,0,-1.33365594,0.193207044,1.141270536\
 C,0,0.021967089,-0.47033751,0.950186539\N,0,-1.303304814,1.529148773,0
 .515945207\O,0,0.155929117,-1.611462803,0.51692019\O,0,1.024922388,0.3
 53392554,1.298656\C,0,-2.121889445,-0.918337302,-0.967112723\H,0,-3.39
 229932,-0.247402335,0.596496855\H,0,-2.419176945,-1.669900059,1.004436
 439\H,0,-1.526304416,0.239474424,2.221387894\H,0,-1.503902114,0.960750
 702,-1.170400229\H,0,-0.410560182,1.997532273,0.666150752\H,0,1.924402
 159,-0.039925506,1.230818645\N,0,-1.700457396,0.069239192,-1.694919761
 \O,0,-2.336854815,-2.071648312,-1.575178364\H,0,-2.071900591,2.1285565
 43,0.807834339\H,0,-1.514408501,-0.054510917,-2.685235696\\Version=ES6
 4L-G09RevD.01\State=1-A\HF=-532.8816676\RMSD=4.847e-09\Dipole=-1.94101
 51,0.4138964,-0.2211064\Quadrupole=6.6342003,-1.713794,-4.9204064,3.02
 46711,2.4355691,0.1951638\PG=C01 [X(C5H13N2O3)]\\@


 YOU WILL NEVER "FIND" TIME FOR ANYTHING.
 IF YOU WANT TIME, YOU MUST MAKE IT.

                        -- CHARLES BIXTON
 Job cpu time:       0 days  0 hours  0 minutes 58.2 seconds.
 File lengths (MBytes):  RWF=      7 Int=      0 D2E=      0 Chk=      2 Scr=      1
 Normal termination of Gaussian 09 at Thu Mar 12 19:31:56 2020.
