 Entering Gaussian System, Link 0=g09
 Input=./h4_o21_14.gjf
 Output=./h4_o21_14.log
 Initial command:
 /usr/local/gaussian09d01/g09/l1.exe "/scr/Gau-22626.inp" -scrdir="/scr/"
 Entering Link 1 = /usr/local/gaussian09d01/g09/l1.exe PID=     22627.
  
 Copyright (c) 1988,1990,1992,1993,1995,1998,2003,2009,2013,
            Gaussian, Inc.  All Rights Reserved.
  
 This is part of the Gaussian(R) 09 program.  It is based on
 the Gaussian(R) 03 system (copyright 2003, Gaussian, Inc.),
 the Gaussian(R) 98 system (copyright 1998, Gaussian, Inc.),
 the Gaussian(R) 94 system (copyright 1995, Gaussian, Inc.),
 the Gaussian 92(TM) system (copyright 1992, Gaussian, Inc.),
 the Gaussian 90(TM) system (copyright 1990, Gaussian, Inc.),
 the Gaussian 88(TM) system (copyright 1988, Gaussian, Inc.),
 the Gaussian 86(TM) system (copyright 1986, Carnegie Mellon
 University), and the Gaussian 82(TM) system (copyright 1983,
 Carnegie Mellon University). Gaussian is a federally registered
 trademark of Gaussian, Inc.
  
 This software contains proprietary and confidential information,
 including trade secrets, belonging to Gaussian, Inc.
  
 This software is provided under written license and may be
 used, copied, transmitted, or stored only in accord with that
 written license.
  
 The following legend is applicable only to US Government
 contracts under FAR:
  
                    RESTRICTED RIGHTS LEGEND
  
 Use, reproduction and disclosure by the US Government is
 subject to restrictions as set forth in subparagraphs (a)
 and (c) of the Commercial Computer Software - Restricted
 Rights clause in FAR 52.227-19.
  
 Gaussian, Inc.
 340 Quinnipiac St., Bldg. 40, Wallingford CT 06492
  
  
 ---------------------------------------------------------------
 Warning -- This program may not be used in any manner that
 competes with the business of Gaussian, Inc. or will provide
 assistance to any competitor of Gaussian, Inc.  The licensee
 of this program is prohibited from giving any competitor of
 Gaussian, Inc. access to this program.  By using this program,
 the user acknowledges that Gaussian, Inc. is engaged in the
 business of creating and licensing software in the field of
 computational chemistry and represents and warrants to the
 licensee that it is not a competitor of Gaussian, Inc. and that
 it will not use this program in any manner prohibited above.
 ---------------------------------------------------------------
  

 Cite this work as:
 Gaussian 09, Revision D.01,
 M. J. Frisch, G. W. Trucks, H. B. Schlegel, G. E. Scuseria, 
 M. A. Robb, J. R. Cheeseman, G. Scalmani, V. Barone, B. Mennucci, 
 G. A. Petersson, H. Nakatsuji, M. Caricato, X. Li, H. P. Hratchian, 
 A. F. Izmaylov, J. Bloino, G. Zheng, J. L. Sonnenberg, M. Hada, 
 M. Ehara, K. Toyota, R. Fukuda, J. Hasegawa, M. Ishida, T. Nakajima, 
 Y. Honda, O. Kitao, H. Nakai, T. Vreven, J. A. Montgomery, Jr., 
 J. E. Peralta, F. Ogliaro, M. Bearpark, J. J. Heyd, E. Brothers, 
 K. N. Kudin, V. N. Staroverov, T. Keith, R. Kobayashi, J. Normand, 
 K. Raghavachari, A. Rendell, J. C. Burant, S. S. Iyengar, J. Tomasi, 
 M. Cossi, N. Rega, J. M. Millam, M. Klene, J. E. Knox, J. B. Cross, 
 V. Bakken, C. Adamo, J. Jaramillo, R. Gomperts, R. E. Stratmann, 
 O. Yazyev, A. J. Austin, R. Cammi, C. Pomelli, J. W. Ochterski, 
 R. L. Martin, K. Morokuma, V. G. Zakrzewski, G. A. Voth, 
 P. Salvador, J. J. Dannenberg, S. Dapprich, A. D. Daniels, 
 O. Farkas, J. B. Foresman, J. V. Ortiz, J. Cioslowski, 
 and D. J. Fox, Gaussian, Inc., Wallingford CT, 2013.
 
 ******************************************
 Gaussian 09:  ES64L-G09RevD.01 24-Apr-2013
                12-Mar-2020 
 ******************************************
 --------------
 #p M062X/6-31G
 --------------
 1/38=1/1;
 2/12=2,17=6,18=5,40=1/2;
 3/5=1,6=6,11=2,16=1,25=1,30=1,74=-55/1,2,3;
 4//1;
 5/5=2,38=5/2;
 6/7=2,8=2,9=2,10=2,28=1/1;
 99/5=1,9=1/99;
 Leave Link    1 at Thu Mar 12 19:31:56 2020, MaxMem=           0 cpu:         0.0
 (Enter /usr/local/gaussian09d01/g09/l101.exe)
 --------
 chk calc
 --------
 Symbolic Z-matrix:
 Charge =  1 Multiplicity = 1
 C                     3.82448  -1.1422    1.17225 
 H                     4.79911  -1.62961   1.17381 
 H                     3.05361  -1.91631   1.1608 
 H                    -2.62184  -3.15431  -0.78995 
 H                     3.75961  -0.53292   2.07825 
 H                     3.76532  -0.52154   0.27395 
 C                    -2.40154  -0.7055    0.49256 
 C                    -1.33366   0.19321   1.14127 
 C                     0.02197  -0.47034   0.95019 
 N                    -1.3033    1.52915   0.51595 
 O                     0.15593  -1.61146   0.51692 
 O                     1.02492   0.35339   1.29866 
 C                    -2.12189  -0.91834  -0.96711 
 H                    -3.3923   -0.2474    0.5965 
 H                    -2.41918  -1.6699    1.00444 
 H                    -1.5263    0.23947   2.22139 
 H                    -1.5039    0.96075  -1.1704 
 H                    -0.41056   1.99753   0.66615 
 H                     1.9244   -0.03993   1.23082 
 N                    -1.70046   0.06924  -1.69492 
 O                    -2.33685  -2.07165  -1.57518 
 H                    -2.0719    2.12856   0.80783 
 H                    -1.51441  -0.05451  -2.68524 
 
 NAtoms=     23 NQM=       23 NQMF=       0 NMMI=      0 NMMIF=      0
                NMic=       0 NMicF=      0.
                    Isotopes and Nuclear Properties:
 (Nuclear quadrupole moments (NQMom) in fm**2, nuclear magnetic moments (NMagM)
  in nuclear magnetons)

  Atom         1           2           3           4           5           6           7           8           9          10
 IAtWgt=          12           1           1           1           1           1          12          12          12          14
 AtmWgt=  12.0000000   1.0078250   1.0078250   1.0078250   1.0078250   1.0078250  12.0000000  12.0000000  12.0000000  14.0030740
 NucSpn=           0           1           1           1           1           1           0           0           0           2
 AtZEff=   0.0000000   0.0000000   0.0000000   0.0000000   0.0000000   0.0000000   0.0000000   0.0000000   0.0000000   0.0000000
 NQMom=    0.0000000   0.0000000   0.0000000   0.0000000   0.0000000   0.0000000   0.0000000   0.0000000   0.0000000   2.0440000
 NMagM=    0.0000000   2.7928460   2.7928460   2.7928460   2.7928460   2.7928460   0.0000000   0.0000000   0.0000000   0.4037610
 AtZNuc=   6.0000000   1.0000000   1.0000000   1.0000000   1.0000000   1.0000000   6.0000000   6.0000000   6.0000000   7.0000000

  Atom        11          12          13          14          15          16          17          18          19          20
 IAtWgt=          16          16          12           1           1           1           1           1           1          14
 AtmWgt=  15.9949146  15.9949146  12.0000000   1.0078250   1.0078250   1.0078250   1.0078250   1.0078250   1.0078250  14.0030740
 NucSpn=           0           0           0           1           1           1           1           1           1           2
 AtZEff=   0.0000000   0.0000000   0.0000000   0.0000000   0.0000000   0.0000000   0.0000000   0.0000000   0.0000000   0.0000000
 NQMom=    0.0000000   0.0000000   0.0000000   0.0000000   0.0000000   0.0000000   0.0000000   0.0000000   0.0000000   2.0440000
 NMagM=    0.0000000   0.0000000   0.0000000   2.7928460   2.7928460   2.7928460   2.7928460   2.7928460   2.7928460   0.4037610
 AtZNuc=   8.0000000   8.0000000   6.0000000   1.0000000   1.0000000   1.0000000   1.0000000   1.0000000   1.0000000   7.0000000

  Atom        21          22          23
 IAtWgt=          16           1           1
 AtmWgt=  15.9949146   1.0078250   1.0078250
 NucSpn=           0           1           1
 AtZEff=   0.0000000   0.0000000   0.0000000
 NQMom=    0.0000000   0.0000000   0.0000000
 NMagM=    0.0000000   2.7928460   2.7928460
 AtZNuc=   8.0000000   1.0000000   1.0000000
 Leave Link  101 at Thu Mar 12 19:31:56 2020, MaxMem=    33554432 cpu:         0.0
 (Enter /usr/local/gaussian09d01/g09/l202.exe)
                          Input orientation:                          
 ---------------------------------------------------------------------
 Center     Atomic      Atomic             Coordinates (Angstroms)
 Number     Number       Type             X           Y           Z
 ---------------------------------------------------------------------
      1          6           0        3.824483   -1.142195    1.172254
      2          1           0        4.799113   -1.629614    1.173809
      3          1           0        3.053614   -1.916313    1.160805
      4          1           0       -2.621841   -3.154313   -0.789954
      5          1           0        3.759606   -0.532918    2.078246
      6          1           0        3.765324   -0.521541    0.273951
      7          6           0       -2.401542   -0.705499    0.492563
      8          6           0       -1.333656    0.193207    1.141271
      9          6           0        0.021967   -0.470338    0.950187
     10          7           0       -1.303305    1.529149    0.515945
     11          8           0        0.155929   -1.611463    0.516920
     12          8           0        1.024922    0.353393    1.298656
     13          6           0       -2.121889   -0.918337   -0.967113
     14          1           0       -3.392299   -0.247402    0.596497
     15          1           0       -2.419177   -1.669900    1.004436
     16          1           0       -1.526304    0.239474    2.221388
     17          1           0       -1.503902    0.960751   -1.170400
     18          1           0       -0.410560    1.997532    0.666151
     19          1           0        1.924402   -0.039926    1.230819
     20          7           0       -1.700457    0.069239   -1.694920
     21          8           0       -2.336855   -2.071648   -1.575178
     22          1           0       -2.071901    2.128557    0.807834
     23          1           0       -1.514409   -0.054511   -2.685236
 ---------------------------------------------------------------------
                    Distance matrix (angstroms):
                    1          2          3          4          5
     1  C    0.000000
     2  H    1.089717   0.000000
     3  H    1.092532   1.768935   0.000000
     4  H    7.032351   7.826342   6.127715   0.000000
     5  H    1.093732   1.761058   1.803858   7.471355   0.000000
     6  H    1.093462   1.762467   1.799563   6.989939   1.804340
     7  C    6.278222   7.291606   5.627730   2.773098   6.364270
     8  C    5.328288   6.398015   4.868120   4.073689   5.229388
     9  C    3.867794   4.920879   3.365425   4.149884   3.904662
    10  N    5.819023   6.902903   5.591940   5.037730   5.685594
    11  O    3.756056   4.689455   2.983974   3.435740   4.072774
    12  O    3.176523   4.265257   3.047319   5.474045   2.978557
    13  C    6.323476   7.279405   5.684173   2.298026   6.634362
    14  H    7.294799   8.327247   6.682328   3.311493   7.309368
    15  H    6.268167   7.220389   5.480567   2.337604   6.373630
    16  H    5.624999   6.678459   5.171838   4.667566   5.343962
    17  H    6.188869   7.206477   5.872220   4.281154   6.363118
    18  H    5.296189   6.368250   5.250083   5.792367   5.078138
    19  H    2.197438   3.285472   2.191084   5.869519   2.080661
    20  N    6.341389   7.304801   5.890567   3.472636   6.664208
    21  O    6.809871   7.659919   6.047056   1.367464   7.272004
    22  H    6.752626   7.840192   6.538842   5.546537   6.534820
    23  H    6.675855   7.565298   6.255011   3.798325   7.122841
                    6          7          8          9         10
     6  H    0.000000
     7  C    6.173481   0.000000
     8  C    5.221370   1.539115   0.000000
     9  C    3.804292   2.477522   1.521354   0.000000
    10  N    5.473106   2.490045   1.475362   2.437797   0.000000
    11  O    3.778186   2.713305   2.421882   1.227938   3.463063
    12  O    3.053740   3.675826   2.369245   1.343831   2.723175
    13  C    6.029674   1.501385   2.510403   2.910818   2.976530
    14  H    7.170129   1.096474   2.174610   3.439769   2.743450
    15  H    6.332486   1.091969   2.160613   2.720492   3.423114
    16  H    5.689726   2.155888   1.098138   2.125307   2.149773
    17  H    5.661103   2.519443   2.441706   2.978788   1.790831
    18  H    4.892602   3.361625   2.081690   2.521535   1.019283
    19  H    2.129916   4.438671   3.267616   1.970601   3.659389
    20  N    5.839541   2.424215   2.862497   3.202261   2.678990
    21  O    6.561912   2.479133   3.676285   3.808636   4.290310
    22  H    6.432825   2.870528   2.098038   3.340478   1.017462
    23  H    6.070459   3.362914   3.838774   3.968584   3.577723
                   11         12         13         14         15
    11  O    0.000000
    12  O    2.286245   0.000000
    13  C    2.805572   4.080861   0.000000
    14  H    3.802225   4.512852   2.123434   0.000000
    15  H    2.621499   4.005259   2.130782   1.771124   0.000000
    16  H    3.026729   2.715358   3.444094   2.521757   2.433907
    17  H    3.495479   3.586095   1.988519   2.854401   3.533832
    18  H    3.656231   2.272415   3.754796   3.733008   4.195121
    19  H    2.471210   0.984055   4.687748   5.358426   4.644862
    20  N    3.341132   4.058317   1.297157   2.865865   3.290545
    21  O    3.286734   5.043936   1.321393   3.026220   2.612009
    22  H    4.362981   3.603113   3.526542   2.726407   3.819362
    23  H    3.932929   4.741938   2.016724   3.785954   4.128168
                   16         17         18         19         20
    16  H    0.000000
    17  H    3.467704   0.000000
    18  H    2.598926   2.375549   0.000000
    19  H    3.600926   4.303542   3.149942   0.000000
    20  N    3.923872   1.052876   3.310106   4.659557   0.000000
    21  O    4.517986   3.170662   5.029155   5.491796   2.236680
    22  H    2.421661   2.366391   1.672511   4.566362   3.262290
    23  H    4.915437   1.823621   4.081808   5.211632   1.015211
                   21         22         23
    21  O    0.000000
    22  H    4.836390   0.000000
    23  H    2.444890   4.156696   0.000000
 Stoichiometry    C5H13N2O3(1+)
 Framework group  C1[X(C5H13N2O3)]
 Deg. of freedom    63
 Full point group                 C1      NOp   1
 Largest Abelian subgroup         C1      NOp   1
 Largest concise Abelian subgroup C1      NOp   1
                         Standard orientation:                         
 ---------------------------------------------------------------------
 Center     Atomic      Atomic             Coordinates (Angstroms)
 Number     Number       Type             X           Y           Z
 ---------------------------------------------------------------------
      1          6           0       -4.368340   -0.942638    0.327362
      2          1           0       -5.271926   -1.545898    0.411578
      3          1           0       -3.651728   -1.482994   -0.295623
      4          1           0        2.337835   -2.406803   -1.201494
      5          1           0       -4.650033    0.010245   -0.129708
      6          1           0       -3.972691   -0.795084    1.335999
      7          6           0        1.652779    0.270592   -0.972744
      8          6           0        0.420341    1.153031   -0.705771
      9          6           0       -0.763332    0.239331   -0.425430
     10          7           0        0.631050    2.032172    0.460165
     11          8           0       -0.725320   -0.977403   -0.586509
     12          8           0       -1.822201    0.932668    0.026191
     13          6           0        1.945794   -0.625155    0.195989
     14          1           0        2.531335    0.898794   -1.161837
     15          1           0        1.473840   -0.337549   -1.861867
     16          1           0        0.190108    1.716094   -1.620025
     17          1           0        1.453782    0.811392    1.479913
     18          1           0       -0.251384    2.345814    0.862505
     19          1           0       -2.629813    0.394027    0.187420
     20          7           0        1.832682   -0.168056    1.404658
     21          8           0        2.372908   -1.867608    0.054689
     22          1           0        1.233084    2.827995    0.261548
     23          1           0        2.034921   -0.757065    2.206420
 ---------------------------------------------------------------------
 Rotational constants (GHZ):      1.7930998      0.7167958      0.6057135
 Leave Link  202 at Thu Mar 12 19:31:56 2020, MaxMem=    33554432 cpu:         0.0
 (Enter /usr/local/gaussian09d01/g09/l301.exe)
 Standard basis: 6-31G (6D, 7F)
 Ernie: Thresh=  0.10000D-02 Tol=  0.10000D-05 Strict=F.
 There are   116 symmetry adapted cartesian basis functions of A   symmetry.
 There are   116 symmetry adapted basis functions of A   symmetry.
   116 basis functions,   272 primitive gaussians,   116 cartesian basis functions
    40 alpha electrons       40 beta electrons
       nuclear repulsion energy       584.7174014847 Hartrees.
 IExCor= 4336 DFT=T Ex+Corr=M062X ExCW=0 ScaHFX=  0.540000
 ScaDFX=  1.000000  1.000000  1.000000  1.000000 ScalE2=  1.000000  1.000000
 IRadAn=      0 IRanWt=     -1 IRanGd=            0 ICorTp=0 IEmpDi=  4
 NAtoms=   23 NActive=   23 NUniq=   23 SFac= 1.00D+00 NAtFMM=   60 NAOKFM=F Big=F
 Integral buffers will be    131072 words long.
 Raffenetti 2 integral format.
 Two-electron integral symmetry is turned on.
 Leave Link  301 at Thu Mar 12 19:31:56 2020, MaxMem=    33554432 cpu:         0.0
 (Enter /usr/local/gaussian09d01/g09/l302.exe)
 NPDir=0 NMtPBC=     1 NCelOv=     1 NCel=       1 NClECP=     1 NCelD=      1
         NCelK=      1 NCelE2=     1 NClLst=     1 CellRange=     0.0.
 One-electron integrals computed using PRISM.
 NBasis=   116 RedAO= T EigKep=  3.55D-03  NBF=   116
 NBsUse=   116 1.00D-06 EigRej= -1.00D+00 NBFU=   116
 Precomputing XC quadrature grid using
 IXCGrd= 4 IRadAn=           0 IRanWt=          -1 IRanGd=           0 AccXCQ= 0.00D+00.
 Generated NRdTot=       0 NPtTot=           0 NUsed=           0 NTot=          32
 NSgBfM=   115   115   115   115   115 MxSgAt=    23 MxSgA2=    23.
 Leave Link  302 at Thu Mar 12 19:31:56 2020, MaxMem=    33554432 cpu:         0.3
 (Enter /usr/local/gaussian09d01/g09/l303.exe)
 DipDrv:  MaxL=1.
 Leave Link  303 at Thu Mar 12 19:31:56 2020, MaxMem=    33554432 cpu:         0.0
 (Enter /usr/local/gaussian09d01/g09/l401.exe)
 ExpMin= 1.61D-01 ExpMax= 5.48D+03 ExpMxC= 8.25D+02 IAcc=1 IRadAn=         1 AccDes= 0.00D+00
 Harris functional with IExCor= 1009 and IRadAn=       1 diagonalized for initial guess.
 HarFok:  IExCor= 1009 AccDes= 0.00D+00 IRadAn=         1 IDoV= 1 UseB2=F ITyADJ=14
 ICtDFT=  3500011 ScaDFX=  1.000000  1.000000  1.000000  1.000000
 FoFCou: FMM=F IPFlag=           0 FMFlag=      100000 FMFlg1=           0
         NFxFlg=           0 DoJE=T BraDBF=F KetDBF=T FulRan=T
         wScrn=  0.000000 ICntrl=     500 IOpCl=  0 I1Cent=   200000004 NGrid=           0
         NMat0=    1 NMatS0=      1 NMatT0=    0 NMatD0=    1 NMtDS0=    0 NMtDT0=    0
 Petite list used in FoFCou.
 Harris En= -532.693828322775    
 JPrj=0 DoOrth=F DoCkMO=F.
 Leave Link  401 at Thu Mar 12 19:31:57 2020, MaxMem=    33554432 cpu:         0.8
 (Enter /usr/local/gaussian09d01/g09/l502.exe)
 Closed shell SCF:
 Using DIIS extrapolation, IDIIS=  1040.
 Integral symmetry usage will be decided dynamically.
 Keep R1 ints in memory in canonical form, NReq=24030401.
 IVT=       60528 IEndB=       60528 NGot=    33554432 MDV=    10465614
 LenX=    10465614 LenY=    10451717
 Requested convergence on RMS density matrix=1.00D-08 within 128 cycles.
 Requested convergence on MAX density matrix=1.00D-06.
 Requested convergence on             energy=1.00D-06.
 No special actions if energy rises.
 FoFCou: FMM=F IPFlag=           0 FMFlag=           0 FMFlg1=           0
         NFxFlg=           0 DoJE=F BraDBF=F KetDBF=F FulRan=T
         wScrn=  0.000000 ICntrl=     600 IOpCl=  0 I1Cent=           0 NGrid=           0
         NMat0=    1 NMatS0=   6786 NMatT0=    0 NMatD0=    1 NMtDS0=    0 NMtDT0=    0
 Symmetry not used in FoFCou.
 Integral accuracy reduced to 1.0D-05 until final iterations.

 Cycle   1  Pass 0  IDiag  1:
 E= -532.588710620215    
 DIIS: error= 5.59D-02 at cycle   1 NSaved=   1.
 NSaved= 1 IEnMin= 1 EnMin= -532.588710620215     IErMin= 1 ErrMin= 5.59D-02
 ErrMax= 5.59D-02  0.00D+00 EMaxC= 1.00D-01 BMatC= 3.13D-01 BMatP= 3.13D-01
 IDIUse=3 WtCom= 4.41D-01 WtEn= 5.59D-01
 Coeff-Com:  0.100D+01
 Coeff-En:   0.100D+01
 Coeff:      0.100D+01
 Gap=     0.218 Goal=   None    Shift=    0.000
 GapD=    0.218 DampG=1.000 DampE=0.500 DampFc=0.5000 IDamp=-1.
 Damping current iteration by 5.00D-01
 RMSDP=8.34D-03 MaxDP=1.64D-01              OVMax= 1.76D-01

 Cycle   2  Pass 0  IDiag  1:
 E= -532.715688283049     Delta-E=       -0.126977662834 Rises=F Damp=T
 DIIS: error= 1.05D-02 at cycle   2 NSaved=   2.
 NSaved= 2 IEnMin= 2 EnMin= -532.715688283049     IErMin= 2 ErrMin= 1.05D-02
 ErrMax= 1.05D-02  0.00D+00 EMaxC= 1.00D-01 BMatC= 1.93D-02 BMatP= 3.13D-01
 IDIUse=3 WtCom= 8.95D-01 WtEn= 1.05D-01
 Coeff-Com:  0.376D-01 0.962D+00
 Coeff-En:   0.392D-01 0.961D+00
 Coeff:      0.378D-01 0.962D+00
 Gap=     0.305 Goal=   None    Shift=    0.000
 RMSDP=2.14D-03 MaxDP=3.38D-02 DE=-1.27D-01 OVMax= 1.09D-01

 Cycle   3  Pass 0  IDiag  1:
 E= -532.848192437665     Delta-E=       -0.132504154616 Rises=F Damp=F
 DIIS: error= 1.15D-02 at cycle   3 NSaved=   3.
 NSaved= 3 IEnMin= 3 EnMin= -532.848192437665     IErMin= 2 ErrMin= 1.05D-02
 ErrMax= 1.15D-02  0.00D+00 EMaxC= 1.00D-01 BMatC= 1.50D-02 BMatP= 1.93D-02
 IDIUse=3 WtCom= 8.85D-01 WtEn= 1.15D-01
 Coeff-Com: -0.213D-01 0.469D+00 0.552D+00
 Coeff-En:   0.000D+00 0.000D+00 0.100D+01
 Coeff:     -0.188D-01 0.415D+00 0.604D+00
 Gap=     0.296 Goal=   None    Shift=    0.000
 RMSDP=1.40D-03 MaxDP=3.51D-02 DE=-1.33D-01 OVMax= 5.41D-02

 Cycle   4  Pass 0  IDiag  1:
 E= -532.857887237531     Delta-E=       -0.009694799866 Rises=F Damp=F
 DIIS: error= 7.45D-03 at cycle   4 NSaved=   4.
 NSaved= 4 IEnMin= 4 EnMin= -532.857887237531     IErMin= 4 ErrMin= 7.45D-03
 ErrMax= 7.45D-03  0.00D+00 EMaxC= 1.00D-01 BMatC= 3.70D-03 BMatP= 1.50D-02
 IDIUse=3 WtCom= 9.25D-01 WtEn= 7.45D-02
 Coeff-Com: -0.601D-02 0.323D-01 0.337D+00 0.637D+00
 Coeff-En:   0.000D+00 0.000D+00 0.196D+00 0.804D+00
 Coeff:     -0.556D-02 0.299D-01 0.327D+00 0.649D+00
 Gap=     0.294 Goal=   None    Shift=    0.000
 RMSDP=5.32D-04 MaxDP=1.11D-02 DE=-9.69D-03 OVMax= 1.76D-02

 Cycle   5  Pass 0  IDiag  1:
 E= -532.860576589918     Delta-E=       -0.002689352387 Rises=F Damp=F
 DIIS: error= 1.11D-03 at cycle   5 NSaved=   5.
 NSaved= 5 IEnMin= 5 EnMin= -532.860576589918     IErMin= 5 ErrMin= 1.11D-03
 ErrMax= 1.11D-03  0.00D+00 EMaxC= 1.00D-01 BMatC= 1.69D-04 BMatP= 3.70D-03
 IDIUse=3 WtCom= 9.89D-01 WtEn= 1.11D-02
 Coeff-Com: -0.738D-03-0.867D-02 0.143D+00 0.336D+00 0.531D+00
 Coeff-En:   0.000D+00 0.000D+00 0.000D+00 0.000D+00 0.100D+01
 Coeff:     -0.730D-03-0.857D-02 0.141D+00 0.332D+00 0.536D+00
 Gap=     0.291 Goal=   None    Shift=    0.000
 RMSDP=1.07D-04 MaxDP=2.09D-03 DE=-2.69D-03 OVMax= 3.65D-03

 Cycle   6  Pass 0  IDiag  1:
 E= -532.860724381530     Delta-E=       -0.000147791611 Rises=F Damp=F
 DIIS: error= 2.95D-04 at cycle   6 NSaved=   6.
 NSaved= 6 IEnMin= 6 EnMin= -532.860724381530     IErMin= 6 ErrMin= 2.95D-04
 ErrMax= 2.95D-04  0.00D+00 EMaxC= 1.00D-01 BMatC= 4.56D-06 BMatP= 1.69D-04
 IDIUse=3 WtCom= 9.97D-01 WtEn= 2.95D-03
 Coeff-Com:  0.713D-03-0.404D-02 0.122D-01 0.226D-01 0.125D+00 0.843D+00
 Coeff-En:   0.000D+00 0.000D+00 0.000D+00 0.000D+00 0.000D+00 0.100D+01
 Coeff:      0.710D-03-0.402D-02 0.121D-01 0.225D-01 0.125D+00 0.844D+00
 Gap=     0.291 Goal=   None    Shift=    0.000
 RMSDP=3.04D-05 MaxDP=4.33D-04 DE=-1.48D-04 OVMax= 5.94D-04

 Cycle   7  Pass 0  IDiag  1:
 E= -532.860728894987     Delta-E=       -0.000004513457 Rises=F Damp=F
 DIIS: error= 7.42D-05 at cycle   7 NSaved=   7.
 NSaved= 7 IEnMin= 7 EnMin= -532.860728894987     IErMin= 7 ErrMin= 7.42D-05
 ErrMax= 7.42D-05  0.00D+00 EMaxC= 1.00D-01 BMatC= 6.73D-07 BMatP= 4.56D-06
 IDIUse=1 WtCom= 1.00D+00 WtEn= 0.00D+00
 Coeff-Com:  0.479D-03-0.811D-03-0.130D-01-0.361D-01-0.154D-01 0.321D+00
 Coeff-Com:  0.743D+00
 Coeff:      0.479D-03-0.811D-03-0.130D-01-0.361D-01-0.154D-01 0.321D+00
 Coeff:      0.743D+00
 Gap=     0.291 Goal=   None    Shift=    0.000
 RMSDP=1.25D-05 MaxDP=2.33D-04 DE=-4.51D-06 OVMax= 3.17D-04

 Cycle   8  Pass 0  IDiag  1:
 E= -532.860729654746     Delta-E=       -0.000000759760 Rises=F Damp=F
 DIIS: error= 3.31D-05 at cycle   8 NSaved=   8.
 NSaved= 8 IEnMin= 8 EnMin= -532.860729654746     IErMin= 8 ErrMin= 3.31D-05
 ErrMax= 3.31D-05  0.00D+00 EMaxC= 1.00D-01 BMatC= 1.27D-07 BMatP= 6.73D-07
 IDIUse=1 WtCom= 1.00D+00 WtEn= 0.00D+00
 Coeff-Com:  0.162D-03 0.975D-04-0.749D-02-0.204D-01-0.222D-01 0.495D-01
 Coeff-Com:  0.362D+00 0.638D+00
 Coeff:      0.162D-03 0.975D-04-0.749D-02-0.204D-01-0.222D-01 0.495D-01
 Coeff:      0.362D+00 0.638D+00
 Gap=     0.291 Goal=   None    Shift=    0.000
 RMSDP=4.47D-06 MaxDP=9.37D-05 DE=-7.60D-07 OVMax= 9.61D-05

 Initial convergence to 1.0D-05 achieved.  Increase integral accuracy.
 Cycle   9  Pass 1  IDiag  1:
 E= -532.860879143159     Delta-E=       -0.000149488413 Rises=F Damp=F
 DIIS: error= 1.21D-04 at cycle   1 NSaved=   1.
 NSaved= 1 IEnMin= 1 EnMin= -532.860879143159     IErMin= 1 ErrMin= 1.21D-04
 ErrMax= 1.21D-04  0.00D+00 EMaxC= 1.00D-01 BMatC= 1.68D-06 BMatP= 1.68D-06
 IDIUse=3 WtCom= 9.99D-01 WtEn= 1.21D-03
 Coeff-Com:  0.100D+01
 Coeff-En:   0.100D+01
 Coeff:      0.100D+01
 Gap=     0.291 Goal=   None    Shift=    0.000
 RMSDP=4.47D-06 MaxDP=9.37D-05 DE=-1.49D-04 OVMax= 1.98D-04

 Cycle  10  Pass 1  IDiag  1:
 E= -532.860880725371     Delta-E=       -0.000001582212 Rises=F Damp=F
 DIIS: error= 7.26D-05 at cycle   2 NSaved=   2.
 NSaved= 2 IEnMin= 2 EnMin= -532.860880725371     IErMin= 2 ErrMin= 7.26D-05
 ErrMax= 7.26D-05  0.00D+00 EMaxC= 1.00D-01 BMatC= 3.09D-07 BMatP= 1.68D-06
 IDIUse=1 WtCom= 1.00D+00 WtEn= 0.00D+00
 Coeff-Com:  0.224D+00 0.776D+00
 Coeff:      0.224D+00 0.776D+00
 Gap=     0.291 Goal=   None    Shift=    0.000
 RMSDP=6.89D-06 MaxDP=1.31D-04 DE=-1.58D-06 OVMax= 1.44D-04

 Cycle  11  Pass 1  IDiag  1:
 E= -532.860880977843     Delta-E=       -0.000000252471 Rises=F Damp=F
 DIIS: error= 3.01D-05 at cycle   3 NSaved=   3.
 NSaved= 3 IEnMin= 3 EnMin= -532.860880977843     IErMin= 3 ErrMin= 3.01D-05
 ErrMax= 3.01D-05  0.00D+00 EMaxC= 1.00D-01 BMatC= 9.16D-08 BMatP= 3.09D-07
 IDIUse=1 WtCom= 1.00D+00 WtEn= 0.00D+00
 Coeff-Com: -0.429D-01 0.329D+00 0.714D+00
 Coeff:     -0.429D-01 0.329D+00 0.714D+00
 Gap=     0.291 Goal=   None    Shift=    0.000
 RMSDP=3.22D-06 MaxDP=8.04D-05 DE=-2.52D-07 OVMax= 5.14D-05

 Cycle  12  Pass 1  IDiag  1:
 E= -532.860881056468     Delta-E=       -0.000000078625 Rises=F Damp=F
 DIIS: error= 6.65D-06 at cycle   4 NSaved=   4.
 NSaved= 4 IEnMin= 4 EnMin= -532.860881056468     IErMin= 4 ErrMin= 6.65D-06
 ErrMax= 6.65D-06  0.00D+00 EMaxC= 1.00D-01 BMatC= 8.59D-09 BMatP= 9.16D-08
 IDIUse=1 WtCom= 1.00D+00 WtEn= 0.00D+00
 Coeff-Com: -0.313D-01 0.152D+00 0.385D+00 0.495D+00
 Coeff:     -0.313D-01 0.152D+00 0.385D+00 0.495D+00
 Gap=     0.291 Goal=   None    Shift=    0.000
 RMSDP=7.94D-07 MaxDP=2.30D-05 DE=-7.86D-08 OVMax= 2.71D-05

 Cycle  13  Pass 1  IDiag  1:
 E= -532.860881063262     Delta-E=       -0.000000006794 Rises=F Damp=F
 DIIS: error= 2.98D-06 at cycle   5 NSaved=   5.
 NSaved= 5 IEnMin= 5 EnMin= -532.860881063262     IErMin= 5 ErrMin= 2.98D-06
 ErrMax= 2.98D-06  0.00D+00 EMaxC= 1.00D-01 BMatC= 4.66D-10 BMatP= 8.59D-09
 IDIUse=1 WtCom= 1.00D+00 WtEn= 0.00D+00
 Coeff-Com: -0.497D-02 0.418D-02 0.260D-01 0.177D+00 0.798D+00
 Coeff:     -0.497D-02 0.418D-02 0.260D-01 0.177D+00 0.798D+00
 Gap=     0.291 Goal=   None    Shift=    0.000
 RMSDP=3.21D-07 MaxDP=5.68D-06 DE=-6.79D-09 OVMax= 7.28D-06

 Cycle  14  Pass 1  IDiag  1:
 E= -532.860881063650     Delta-E=       -0.000000000387 Rises=F Damp=F
 DIIS: error= 1.23D-06 at cycle   6 NSaved=   6.
 NSaved= 6 IEnMin= 6 EnMin= -532.860881063650     IErMin= 6 ErrMin= 1.23D-06
 ErrMax= 1.23D-06  0.00D+00 EMaxC= 1.00D-01 BMatC= 1.58D-10 BMatP= 4.66D-10
 IDIUse=1 WtCom= 1.00D+00 WtEn= 0.00D+00
 Coeff-Com:  0.215D-02-0.201D-01-0.435D-01 0.311D-01 0.454D+00 0.577D+00
 Coeff:      0.215D-02-0.201D-01-0.435D-01 0.311D-01 0.454D+00 0.577D+00
 Gap=     0.291 Goal=   None    Shift=    0.000
 RMSDP=1.03D-07 MaxDP=2.77D-06 DE=-3.87D-10 OVMax= 4.19D-06

 Cycle  15  Pass 1  IDiag  1:
 E= -532.860881063793     Delta-E=       -0.000000000143 Rises=F Damp=F
 DIIS: error= 2.45D-07 at cycle   7 NSaved=   7.
 NSaved= 7 IEnMin= 7 EnMin= -532.860881063793     IErMin= 7 ErrMin= 2.45D-07
 ErrMax= 2.45D-07  0.00D+00 EMaxC= 1.00D-01 BMatC= 3.58D-12 BMatP= 1.58D-10
 IDIUse=1 WtCom= 1.00D+00 WtEn= 0.00D+00
 Coeff-Com:  0.561D-03-0.221D-02-0.644D-02-0.762D-02-0.352D-01 0.724D-01
 Coeff-Com:  0.979D+00
 Coeff:      0.561D-03-0.221D-02-0.644D-02-0.762D-02-0.352D-01 0.724D-01
 Coeff:      0.979D+00
 Gap=     0.291 Goal=   None    Shift=    0.000
 RMSDP=4.29D-08 MaxDP=6.20D-07 DE=-1.43D-10 OVMax= 1.18D-06

 Cycle  16  Pass 1  IDiag  1:
 E= -532.860881063787     Delta-E=        0.000000000006 Rises=F Damp=F
 DIIS: error= 1.28D-07 at cycle   8 NSaved=   8.
 NSaved= 8 IEnMin= 7 EnMin= -532.860881063793     IErMin= 8 ErrMin= 1.28D-07
 ErrMax= 1.28D-07  0.00D+00 EMaxC= 1.00D-01 BMatC= 1.34D-12 BMatP= 3.58D-12
 IDIUse=1 WtCom= 1.00D+00 WtEn= 0.00D+00
 Coeff-Com:  0.997D-04 0.599D-03 0.419D-03-0.620D-02-0.593D-01-0.949D-02
 Coeff-Com:  0.523D+00 0.551D+00
 Coeff:      0.997D-04 0.599D-03 0.419D-03-0.620D-02-0.593D-01-0.949D-02
 Coeff:      0.523D+00 0.551D+00
 Gap=     0.291 Goal=   None    Shift=    0.000
 RMSDP=1.13D-08 MaxDP=2.90D-07 DE= 5.91D-12 OVMax= 5.77D-07

 Cycle  17  Pass 1  IDiag  1:
 E= -532.860881063788     Delta-E=       -0.000000000002 Rises=F Damp=F
 DIIS: error= 2.58D-08 at cycle   9 NSaved=   9.
 NSaved= 9 IEnMin= 7 EnMin= -532.860881063793     IErMin= 9 ErrMin= 2.58D-08
 ErrMax= 2.58D-08  0.00D+00 EMaxC= 1.00D-01 BMatC= 1.26D-13 BMatP= 1.34D-12
 IDIUse=1 WtCom= 1.00D+00 WtEn= 0.00D+00
 Coeff-Com: -0.774D-04 0.703D-03 0.156D-02-0.577D-03-0.152D-01-0.185D-01
 Coeff-Com: -0.263D-01 0.207D+00 0.851D+00
 Coeff:     -0.774D-04 0.703D-03 0.156D-02-0.577D-03-0.152D-01-0.185D-01
 Coeff:     -0.263D-01 0.207D+00 0.851D+00
 Gap=     0.291 Goal=   None    Shift=    0.000
 RMSDP=5.83D-09 MaxDP=1.26D-07 DE=-1.82D-12 OVMax= 2.40D-07

 SCF Done:  E(RM062X) =  -532.860881064     A.U. after   17 cycles
            NFock= 17  Conv=0.58D-08     -V/T= 2.0061
 KE= 5.296279294641D+02 PE=-2.401612045829D+03 EE= 7.544058338161D+02
 Leave Link  502 at Thu Mar 12 19:32:52 2020, MaxMem=    33554432 cpu:        55.5
 (Enter /usr/local/gaussian09d01/g09/l601.exe)
 Copying SCF densities to generalized density rwf, IOpCl= 0 IROHF=0.

 **********************************************************************

            Population analysis using the SCF density.

 **********************************************************************

 Orbital symmetries:
       Occupied  (A) (A) (A) (A) (A) (A) (A) (A) (A) (A) (A) (A)
                 (A) (A) (A) (A) (A) (A) (A) (A) (A) (A) (A) (A)
                 (A) (A) (A) (A) (A) (A) (A) (A) (A) (A) (A) (A)
                 (A) (A) (A) (A)
       Virtual   (A) (A) (A) (A) (A) (A) (A) (A) (A) (A) (A) (A)
                 (A) (A) (A) (A) (A) (A) (A) (A) (A) (A) (A) (A)
                 (A) (A) (A) (A) (A) (A) (A) (A) (A) (A) (A) (A)
                 (A) (A) (A) (A) (A) (A) (A) (A) (A) (A) (A) (A)
                 (A) (A) (A) (A) (A) (A) (A) (A) (A) (A) (A) (A)
                 (A) (A) (A) (A) (A) (A) (A) (A) (A) (A) (A) (A)
                 (A) (A) (A) (A)
 The electronic state is 1-A.
 Alpha  occ. eigenvalues --  -19.89504 -19.83875 -19.80331 -14.98048 -14.92672
 Alpha  occ. eigenvalues --  -10.88649 -10.85975 -10.77655 -10.75103 -10.63008
 Alpha  occ. eigenvalues --   -1.40135  -1.39251  -1.31049  -1.23883  -1.18069
 Alpha  occ. eigenvalues --   -1.05945  -0.96369  -0.90080  -0.88788  -0.85330
 Alpha  occ. eigenvalues --   -0.83017  -0.78477  -0.75237  -0.73710  -0.73064
 Alpha  occ. eigenvalues --   -0.71965  -0.70916  -0.68760  -0.65931  -0.64124
 Alpha  occ. eigenvalues --   -0.63356  -0.60625  -0.59928  -0.57017  -0.56805
 Alpha  occ. eigenvalues --   -0.55863  -0.55341  -0.53927  -0.51379  -0.49029
 Alpha virt. eigenvalues --   -0.19911  -0.15231  -0.12037  -0.03352  -0.00891
 Alpha virt. eigenvalues --   -0.00380   0.01214   0.01985   0.04299   0.05279
 Alpha virt. eigenvalues --    0.06914   0.07621   0.08119   0.10134   0.11166
 Alpha virt. eigenvalues --    0.11334   0.12466   0.13244   0.16059   0.18700
 Alpha virt. eigenvalues --    0.20286   0.24504   0.28347   0.39138   0.41929
 Alpha virt. eigenvalues --    0.43556   0.46291   0.46850   0.48284   0.48451
 Alpha virt. eigenvalues --    0.49971   0.52169   0.52267   0.54637   0.58514
 Alpha virt. eigenvalues --    0.58641   0.58839   0.61118   0.63709   0.64719
 Alpha virt. eigenvalues --    0.67883   0.70278   0.71493   0.75463   0.77314
 Alpha virt. eigenvalues --    0.78471   0.79425   0.81234   0.83492   0.84409
 Alpha virt. eigenvalues --    0.86532   0.87277   0.88087   0.88276   0.89080
 Alpha virt. eigenvalues --    0.92176   0.92565   0.94684   0.95348   0.96894
 Alpha virt. eigenvalues --    1.02598   1.04170   1.09338   1.11390   1.12359
 Alpha virt. eigenvalues --    1.14763   1.19424   1.27115   1.30269   1.33219
 Alpha virt. eigenvalues --    1.42038   1.52951   1.63958   1.75203   1.76539
 Alpha virt. eigenvalues --    1.85924
          Condensed to atoms (all electrons):
               1          2          3          4          5          6
     1  C    5.189098   0.375439   0.371642   0.000000   0.370229   0.370966
     2  H    0.375439   0.469652  -0.017986   0.000000  -0.019855  -0.020262
     3  H    0.371642  -0.017986   0.521440   0.000000  -0.029570  -0.030097
     4  H    0.000000   0.000000   0.000000   0.333527   0.000000   0.000000
     5  H    0.370229  -0.019855  -0.029570   0.000000   0.538227  -0.032191
     6  H    0.370966  -0.020262  -0.030097   0.000000  -0.032191   0.544676
     7  C    0.000000   0.000000  -0.000001  -0.008397   0.000000   0.000000
     8  C   -0.000005   0.000001   0.000083   0.000371  -0.000011  -0.000007
     9  C    0.000263   0.000037   0.001490   0.000021  -0.000153  -0.000130
    10  N    0.000000   0.000000  -0.000001   0.000013   0.000000   0.000000
    11  O   -0.001317   0.000015   0.003303   0.000239   0.000043   0.000016
    12  O   -0.005229   0.000175  -0.001626   0.000000  -0.000761  -0.000631
    13  C    0.000000   0.000000   0.000000  -0.007590   0.000000   0.000000
    14  H    0.000000   0.000000   0.000000   0.000260   0.000000   0.000000
    15  H    0.000000   0.000000   0.000000   0.005122   0.000000   0.000000
    16  H    0.000001   0.000000  -0.000002  -0.000002   0.000000   0.000000
    17  H    0.000000   0.000000   0.000000  -0.000032   0.000000   0.000000
    18  H   -0.000001   0.000000   0.000000   0.000000   0.000000   0.000000
    19  H    0.026877  -0.000935   0.002071   0.000000   0.005169   0.004693
    20  N    0.000000   0.000000   0.000000   0.004336   0.000000   0.000000
    21  O    0.000000   0.000000   0.000000   0.196695   0.000000   0.000000
    22  H    0.000000   0.000000   0.000000   0.000000   0.000000   0.000000
    23  H    0.000000   0.000000   0.000000  -0.000060   0.000000   0.000000
               7          8          9         10         11         12
     1  C    0.000000  -0.000005   0.000263   0.000000  -0.001317  -0.005229
     2  H    0.000000   0.000001   0.000037   0.000000   0.000015   0.000175
     3  H   -0.000001   0.000083   0.001490  -0.000001   0.003303  -0.001626
     4  H   -0.008397   0.000371   0.000021   0.000013   0.000239   0.000000
     5  H    0.000000  -0.000011  -0.000153   0.000000   0.000043  -0.000761
     6  H    0.000000  -0.000007  -0.000130   0.000000   0.000016  -0.000631
     7  C    5.417395   0.216127  -0.048185  -0.072209   0.008019   0.005379
     8  C    0.216127   5.570895   0.152309   0.193589  -0.124275  -0.148176
     9  C   -0.048185   0.152309   4.754313  -0.049473   0.495927   0.194726
    10  N   -0.072209   0.193589  -0.049473   7.094246   0.002194   0.001784
    11  O    0.008019  -0.124275   0.495927   0.002194   8.124502  -0.108636
    12  O    0.005379  -0.148176   0.194726   0.001784  -0.108636   8.418529
    13  C    0.259112  -0.017525  -0.007767  -0.007112   0.010810  -0.000539
    14  H    0.376220  -0.027654   0.005629  -0.001482   0.000414  -0.000027
    15  H    0.368471  -0.027732  -0.002136   0.003888   0.004710   0.000130
    16  H   -0.043548   0.385436  -0.027210  -0.035997   0.001094   0.000924
    17  H   -0.010267  -0.011101  -0.000585   0.094644   0.000201  -0.000074
    18  H    0.004836  -0.034229  -0.007497   0.320791   0.000224   0.013168
    19  H   -0.000159   0.005444  -0.018718  -0.000118  -0.000626   0.236988
    20  N   -0.093827   0.004899   0.000393  -0.075693  -0.003395   0.000057
    21  O   -0.056161   0.002631  -0.000588  -0.000160  -0.001628  -0.000001
    22  H   -0.000939  -0.029171   0.004148   0.322195  -0.000080  -0.000003
    23  H    0.003918  -0.000237  -0.000100   0.001495   0.000026   0.000003
              13         14         15         16         17         18
     1  C    0.000000   0.000000   0.000000   0.000001   0.000000  -0.000001
     2  H    0.000000   0.000000   0.000000   0.000000   0.000000   0.000000
     3  H    0.000000   0.000000   0.000000  -0.000002   0.000000   0.000000
     4  H   -0.007590   0.000260   0.005122  -0.000002  -0.000032   0.000000
     5  H    0.000000   0.000000   0.000000   0.000000   0.000000   0.000000
     6  H    0.000000   0.000000   0.000000   0.000000   0.000000   0.000000
     7  C    0.259112   0.376220   0.368471  -0.043548  -0.010267   0.004836
     8  C   -0.017525  -0.027654  -0.027732   0.385436  -0.011101  -0.034229
     9  C   -0.007767   0.005629  -0.002136  -0.027210  -0.000585  -0.007497
    10  N   -0.007112  -0.001482   0.003888  -0.035997   0.094644   0.320791
    11  O    0.010810   0.000414   0.004710   0.001094   0.000201   0.000224
    12  O   -0.000539  -0.000027   0.000130   0.000924  -0.000074   0.013168
    13  C    4.625878  -0.035310  -0.033400   0.004083  -0.017525   0.000188
    14  H   -0.035310   0.445238  -0.016790  -0.003259  -0.000281  -0.000053
    15  H   -0.033400  -0.016790   0.479836  -0.000696   0.000397  -0.000106
    16  H    0.004083  -0.003259  -0.000696   0.463714   0.000990   0.000984
    17  H   -0.017525  -0.000281   0.000397   0.000990   0.254478  -0.000500
    18  H    0.000188  -0.000053  -0.000106   0.000984  -0.000500   0.338297
    19  H   -0.000010   0.000002  -0.000002  -0.000250  -0.000020  -0.000261
    20  N    0.329426  -0.001565   0.004388  -0.000316   0.235325   0.000308
    21  O    0.299979   0.001088  -0.003485  -0.000069   0.001260   0.000002
    22  H   -0.000219   0.001624  -0.000074  -0.003827  -0.001553  -0.020902
    23  H   -0.019509  -0.000134  -0.000069   0.000010  -0.002401  -0.000013
              19         20         21         22         23
     1  C    0.026877   0.000000   0.000000   0.000000   0.000000
     2  H   -0.000935   0.000000   0.000000   0.000000   0.000000
     3  H    0.002071   0.000000   0.000000   0.000000   0.000000
     4  H    0.000000   0.004336   0.196695   0.000000  -0.000060
     5  H    0.005169   0.000000   0.000000   0.000000   0.000000
     6  H    0.004693   0.000000   0.000000   0.000000   0.000000
     7  C   -0.000159  -0.093827  -0.056161  -0.000939   0.003918
     8  C    0.005444   0.004899   0.002631  -0.029171  -0.000237
     9  C   -0.018718   0.000393  -0.000588   0.004148  -0.000100
    10  N   -0.000118  -0.075693  -0.000160   0.322195   0.001495
    11  O   -0.000626  -0.003395  -0.001628  -0.000080   0.000026
    12  O    0.236988   0.000057  -0.000001  -0.000003   0.000003
    13  C   -0.000010   0.329426   0.299979  -0.000219  -0.019509
    14  H    0.000002  -0.001565   0.001088   0.001624  -0.000134
    15  H   -0.000002   0.004388  -0.003485  -0.000074  -0.000069
    16  H   -0.000250  -0.000316  -0.000069  -0.003827   0.000010
    17  H   -0.000020   0.235325   0.001260  -0.001553  -0.002401
    18  H   -0.000261   0.000308   0.000002  -0.020902  -0.000013
    19  H    0.275479   0.000011   0.000000   0.000017  -0.000001
    20  N    0.000011   7.099858  -0.114383   0.000939   0.305975
    21  O    0.000000  -0.114383   8.213671   0.000002  -0.000603
    22  H    0.000017   0.000939   0.000002   0.370677  -0.000021
    23  H   -0.000001   0.305975  -0.000603  -0.000021   0.296325
 Mulliken charges:
               1
     1  C   -0.697963
     2  H    0.213720
     3  H    0.179251
     4  H    0.475497
     5  H    0.168872
     6  H    0.162967
     7  C   -0.325785
     8  C   -0.111662
     9  C    0.553286
    10  N   -0.792594
    11  O   -0.411781
    12  O   -0.606162
    13  C    0.617030
    14  H    0.256080
    15  H    0.217548
    16  H    0.257939
    17  H    0.457047
    18  H    0.384765
    19  H    0.464349
    20  N   -0.696737
    21  O   -0.538249
    22  H    0.357188
    23  H    0.415394
 Sum of Mulliken charges =   1.00000
 Mulliken charges with hydrogens summed into heavy atoms:
               1
     1  C    0.026847
     7  C    0.147842
     8  C    0.146278
     9  C    0.553286
    10  N   -0.050642
    11  O   -0.411781
    12  O   -0.141812
    13  C    0.617030
    20  N    0.175704
    21  O   -0.062751
 Electronic spatial extent (au):  <R**2>=           1997.9350
 Charge=              1.0000 electrons
 Dipole moment (field-independent basis, Debye):
    X=              4.8077    Y=              1.4463    Z=             -0.8178  Tot=              5.0867
 Quadrupole moment (field-independent basis, Debye-Ang):
   XX=            -33.6696   YY=            -46.6780   ZZ=            -46.8026
   XY=             -2.1606   XZ=             -4.9624   YZ=              3.0540
 Traceless Quadrupole moment (field-independent basis, Debye-Ang):
   XX=              8.7138   YY=             -4.2946   ZZ=             -4.4192
   XY=             -2.1606   XZ=             -4.9624   YZ=              3.0540
 Octapole moment (field-independent basis, Debye-Ang**2):
  XXX=            -22.0281  YYY=             11.0773  ZZZ=             10.1000  XYY=             27.5500
  XXY=            -19.6292  XXZ=             -4.0078  XZZ=             26.1641  YZZ=             -9.7121
  YYZ=            -11.3392  XYZ=             11.0936
 Hexadecapole moment (field-independent basis, Debye-Ang**3):
 XXXX=          -1442.4749 YYYY=           -417.6928 ZZZZ=           -196.4925 XXXY=             21.7759
 XXXZ=            -38.5798 YYYX=            -27.6327 YYYZ=             53.5511 ZZZX=             23.5539
 ZZZY=              0.7010 XXYY=           -323.3490 XXZZ=           -283.8094 YYZZ=           -100.6577
 XXYZ=             20.4026 YYXZ=            -38.8472 ZZXY=            -38.6351
 N-N= 5.847174014847D+02 E-N=-2.401612045098D+03  KE= 5.296279294641D+02
 No NMR shielding tensors so no spin-rotation constants.
 Leave Link  601 at Thu Mar 12 19:32:53 2020, MaxMem=    33554432 cpu:         0.1
 (Enter /usr/local/gaussian09d01/g09/l9999.exe)
 1\1\GINC-KARURA\SP\RM062X\6-31G\C5H13N2O3(1+)\RTAKE\12-Mar-2020\0\\#p 
 M062X/6-31G\\chk calc\\1,1\C,0,3.824482709,-1.14219544,1.17225369\H,0,
 4.799113079,-1.62961423,1.173808707\H,0,3.053614027,-1.916312598,1.160
 804944\H,0,-2.621840656,-3.154313183,-0.789953785\H,0,3.75960642,-0.53
 291794,2.07824618\H,0,3.765323683,-0.52154146,0.273951194\C,0,-2.40154
 2122,-0.705499021,0.492562549\C,0,-1.33365594,0.193207044,1.141270536\
 C,0,0.021967089,-0.47033751,0.950186539\N,0,-1.303304814,1.529148773,0
 .515945207\O,0,0.155929117,-1.611462803,0.51692019\O,0,1.024922388,0.3
 53392554,1.298656\C,0,-2.121889445,-0.918337302,-0.967112723\H,0,-3.39
 229932,-0.247402335,0.596496855\H,0,-2.419176945,-1.669900059,1.004436
 439\H,0,-1.526304416,0.239474424,2.221387894\H,0,-1.503902114,0.960750
 702,-1.170400229\H,0,-0.410560182,1.997532273,0.666150752\H,0,1.924402
 159,-0.039925506,1.230818645\N,0,-1.700457396,0.069239192,-1.694919761
 \O,0,-2.336854815,-2.071648312,-1.575178364\H,0,-2.071900591,2.1285565
 43,0.807834339\H,0,-1.514408501,-0.054510917,-2.685235696\\Version=ES6
 4L-G09RevD.01\State=1-A\HF=-532.8608811\RMSD=5.826e-09\Dipole=-1.96151
 63,0.343511,-0.1987812\Quadrupole=6.5273956,-1.2942324,-5.2331632,3.38
 49272,2.3486788,0.1405954\PG=C01 [X(C5H13N2O3)]\\@


 A great many people think they are thinking when they
 are merely rearranging their prejudices.
                               -- William James
 Job cpu time:       0 days  0 hours  0 minutes 56.9 seconds.
 File lengths (MBytes):  RWF=      7 Int=      0 D2E=      0 Chk=      2 Scr=      1
 Normal termination of Gaussian 09 at Thu Mar 12 19:32:53 2020.
