 Entering Gaussian System, Link 0=g09
 Input=./h4_o21_08.gjf
 Output=./h4_o21_08.log
 Initial command:
 /usr/local/gaussian09d01/g09/l1.exe "/scr/Gau-22453.inp" -scrdir="/scr/"
 Entering Link 1 = /usr/local/gaussian09d01/g09/l1.exe PID=     22454.
  
 Copyright (c) 1988,1990,1992,1993,1995,1998,2003,2009,2013,
            Gaussian, Inc.  All Rights Reserved.
  
 This is part of the Gaussian(R) 09 program.  It is based on
 the Gaussian(R) 03 system (copyright 2003, Gaussian, Inc.),
 the Gaussian(R) 98 system (copyright 1998, Gaussian, Inc.),
 the Gaussian(R) 94 system (copyright 1995, Gaussian, Inc.),
 the Gaussian 92(TM) system (copyright 1992, Gaussian, Inc.),
 the Gaussian 90(TM) system (copyright 1990, Gaussian, Inc.),
 the Gaussian 88(TM) system (copyright 1988, Gaussian, Inc.),
 the Gaussian 86(TM) system (copyright 1986, Carnegie Mellon
 University), and the Gaussian 82(TM) system (copyright 1983,
 Carnegie Mellon University). Gaussian is a federally registered
 trademark of Gaussian, Inc.
  
 This software contains proprietary and confidential information,
 including trade secrets, belonging to Gaussian, Inc.
  
 This software is provided under written license and may be
 used, copied, transmitted, or stored only in accord with that
 written license.
  
 The following legend is applicable only to US Government
 contracts under FAR:
  
                    RESTRICTED RIGHTS LEGEND
  
 Use, reproduction and disclosure by the US Government is
 subject to restrictions as set forth in subparagraphs (a)
 and (c) of the Commercial Computer Software - Restricted
 Rights clause in FAR 52.227-19.
  
 Gaussian, Inc.
 340 Quinnipiac St., Bldg. 40, Wallingford CT 06492
  
  
 ---------------------------------------------------------------
 Warning -- This program may not be used in any manner that
 competes with the business of Gaussian, Inc. or will provide
 assistance to any competitor of Gaussian, Inc.  The licensee
 of this program is prohibited from giving any competitor of
 Gaussian, Inc. access to this program.  By using this program,
 the user acknowledges that Gaussian, Inc. is engaged in the
 business of creating and licensing software in the field of
 computational chemistry and represents and warrants to the
 licensee that it is not a competitor of Gaussian, Inc. and that
 it will not use this program in any manner prohibited above.
 ---------------------------------------------------------------
  

 Cite this work as:
 Gaussian 09, Revision D.01,
 M. J. Frisch, G. W. Trucks, H. B. Schlegel, G. E. Scuseria, 
 M. A. Robb, J. R. Cheeseman, G. Scalmani, V. Barone, B. Mennucci, 
 G. A. Petersson, H. Nakatsuji, M. Caricato, X. Li, H. P. Hratchian, 
 A. F. Izmaylov, J. Bloino, G. Zheng, J. L. Sonnenberg, M. Hada, 
 M. Ehara, K. Toyota, R. Fukuda, J. Hasegawa, M. Ishida, T. Nakajima, 
 Y. Honda, O. Kitao, H. Nakai, T. Vreven, J. A. Montgomery, Jr., 
 J. E. Peralta, F. Ogliaro, M. Bearpark, J. J. Heyd, E. Brothers, 
 K. N. Kudin, V. N. Staroverov, T. Keith, R. Kobayashi, J. Normand, 
 K. Raghavachari, A. Rendell, J. C. Burant, S. S. Iyengar, J. Tomasi, 
 M. Cossi, N. Rega, J. M. Millam, M. Klene, J. E. Knox, J. B. Cross, 
 V. Bakken, C. Adamo, J. Jaramillo, R. Gomperts, R. E. Stratmann, 
 O. Yazyev, A. J. Austin, R. Cammi, C. Pomelli, J. W. Ochterski, 
 R. L. Martin, K. Morokuma, V. G. Zakrzewski, G. A. Voth, 
 P. Salvador, J. J. Dannenberg, S. Dapprich, A. D. Daniels, 
 O. Farkas, J. B. Foresman, J. V. Ortiz, J. Cioslowski, 
 and D. J. Fox, Gaussian, Inc., Wallingford CT, 2013.
 
 ******************************************
 Gaussian 09:  ES64L-G09RevD.01 24-Apr-2013
                12-Mar-2020 
 ******************************************
 --------------
 #p M062X/6-31G
 --------------
 1/38=1/1;
 2/12=2,17=6,18=5,40=1/2;
 3/5=1,6=6,11=2,16=1,25=1,30=1,74=-55/1,2,3;
 4//1;
 5/5=2,38=5/2;
 6/7=2,8=2,9=2,10=2,28=1/1;
 99/5=1,9=1/99;
 Leave Link    1 at Thu Mar 12 19:26:13 2020, MaxMem=           0 cpu:         0.0
 (Enter /usr/local/gaussian09d01/g09/l101.exe)
 --------
 chk calc
 --------
 Symbolic Z-matrix:
 Charge =  1 Multiplicity = 1
 C                     3.82448  -1.1422    1.17225 
 H                     4.79911  -1.62961   1.17381 
 H                     3.05361  -1.91631   1.1608 
 H                    -2.4997   -2.69031  -1.12648 
 H                     3.75961  -0.53292   2.07825 
 H                     3.76532  -0.52154   0.27395 
 C                    -2.40154  -0.7055    0.49256 
 C                    -1.33366   0.19321   1.14127 
 C                     0.02197  -0.47034   0.95019 
 N                    -1.3033    1.52915   0.51595 
 O                     0.15593  -1.61146   0.51692 
 O                     1.02492   0.35339   1.29866 
 C                    -2.12189  -0.91834  -0.96711 
 H                    -3.3923   -0.2474    0.5965 
 H                    -2.41918  -1.6699    1.00444 
 H                    -1.5263    0.23947   2.22139 
 H                    -1.5039    0.96075  -1.1704 
 H                    -0.41056   1.99753   0.66615 
 H                     1.9244   -0.03993   1.23082 
 N                    -1.70046   0.06924  -1.69492 
 O                    -2.33685  -2.07165  -1.57518 
 H                    -2.0719    2.12856   0.80783 
 H                    -1.51441  -0.05451  -2.68524 
 
 NAtoms=     23 NQM=       23 NQMF=       0 NMMI=      0 NMMIF=      0
                NMic=       0 NMicF=      0.
                    Isotopes and Nuclear Properties:
 (Nuclear quadrupole moments (NQMom) in fm**2, nuclear magnetic moments (NMagM)
  in nuclear magnetons)

  Atom         1           2           3           4           5           6           7           8           9          10
 IAtWgt=          12           1           1           1           1           1          12          12          12          14
 AtmWgt=  12.0000000   1.0078250   1.0078250   1.0078250   1.0078250   1.0078250  12.0000000  12.0000000  12.0000000  14.0030740
 NucSpn=           0           1           1           1           1           1           0           0           0           2
 AtZEff=   0.0000000   0.0000000   0.0000000   0.0000000   0.0000000   0.0000000   0.0000000   0.0000000   0.0000000   0.0000000
 NQMom=    0.0000000   0.0000000   0.0000000   0.0000000   0.0000000   0.0000000   0.0000000   0.0000000   0.0000000   2.0440000
 NMagM=    0.0000000   2.7928460   2.7928460   2.7928460   2.7928460   2.7928460   0.0000000   0.0000000   0.0000000   0.4037610
 AtZNuc=   6.0000000   1.0000000   1.0000000   1.0000000   1.0000000   1.0000000   6.0000000   6.0000000   6.0000000   7.0000000

  Atom        11          12          13          14          15          16          17          18          19          20
 IAtWgt=          16          16          12           1           1           1           1           1           1          14
 AtmWgt=  15.9949146  15.9949146  12.0000000   1.0078250   1.0078250   1.0078250   1.0078250   1.0078250   1.0078250  14.0030740
 NucSpn=           0           0           0           1           1           1           1           1           1           2
 AtZEff=   0.0000000   0.0000000   0.0000000   0.0000000   0.0000000   0.0000000   0.0000000   0.0000000   0.0000000   0.0000000
 NQMom=    0.0000000   0.0000000   0.0000000   0.0000000   0.0000000   0.0000000   0.0000000   0.0000000   0.0000000   2.0440000
 NMagM=    0.0000000   0.0000000   0.0000000   2.7928460   2.7928460   2.7928460   2.7928460   2.7928460   2.7928460   0.4037610
 AtZNuc=   8.0000000   8.0000000   6.0000000   1.0000000   1.0000000   1.0000000   1.0000000   1.0000000   1.0000000   7.0000000

  Atom        21          22          23
 IAtWgt=          16           1           1
 AtmWgt=  15.9949146   1.0078250   1.0078250
 NucSpn=           0           1           1
 AtZEff=   0.0000000   0.0000000   0.0000000
 NQMom=    0.0000000   0.0000000   0.0000000
 NMagM=    0.0000000   2.7928460   2.7928460
 AtZNuc=   8.0000000   1.0000000   1.0000000
 Leave Link  101 at Thu Mar 12 19:26:13 2020, MaxMem=    33554432 cpu:         0.0
 (Enter /usr/local/gaussian09d01/g09/l202.exe)
                          Input orientation:                          
 ---------------------------------------------------------------------
 Center     Atomic      Atomic             Coordinates (Angstroms)
 Number     Number       Type             X           Y           Z
 ---------------------------------------------------------------------
      1          6           0        3.824483   -1.142195    1.172254
      2          1           0        4.799113   -1.629614    1.173809
      3          1           0        3.053614   -1.916313    1.160805
      4          1           0       -2.499704   -2.690314   -1.126479
      5          1           0        3.759606   -0.532918    2.078246
      6          1           0        3.765324   -0.521541    0.273951
      7          6           0       -2.401542   -0.705499    0.492563
      8          6           0       -1.333656    0.193207    1.141271
      9          6           0        0.021967   -0.470338    0.950187
     10          7           0       -1.303305    1.529149    0.515945
     11          8           0        0.155929   -1.611463    0.516920
     12          8           0        1.024922    0.353393    1.298656
     13          6           0       -2.121889   -0.918337   -0.967113
     14          1           0       -3.392299   -0.247402    0.596497
     15          1           0       -2.419177   -1.669900    1.004436
     16          1           0       -1.526304    0.239474    2.221388
     17          1           0       -1.503902    0.960751   -1.170400
     18          1           0       -0.410560    1.997532    0.666151
     19          1           0        1.924402   -0.039926    1.230819
     20          7           0       -1.700457    0.069239   -1.694920
     21          8           0       -2.336855   -2.071648   -1.575178
     22          1           0       -2.071901    2.128557    0.807834
     23          1           0       -1.514409   -0.054511   -2.685236
 ---------------------------------------------------------------------
                    Distance matrix (angstroms):
                    1          2          3          4          5
     1  C    0.000000
     2  H    1.089717   0.000000
     3  H    1.092532   1.768935   0.000000
     4  H    6.904794   7.725874   6.055583   0.000000
     5  H    1.093732   1.761058   1.803858   7.355514   0.000000
     6  H    1.093462   1.762467   1.799563   6.776086   1.804340
     7  C    6.278222   7.291606   5.627730   2.563283   6.364270
     8  C    5.328288   6.398015   4.868120   3.849292   5.229388
     9  C    3.867794   4.920879   3.365425   3.949640   3.904662
    10  N    5.819023   6.902903   5.591940   4.683246   5.685594
    11  O    3.756056   4.689455   2.983974   3.304098   4.072774
    12  O    3.176523   4.265257   3.047319   5.250564   2.978557
    13  C    6.323476   7.279405   5.684173   1.818802   6.634362
    14  H    7.294799   8.327247   6.682328   3.119806   7.309368
    15  H    6.268167   7.220389   5.480567   2.364007   6.373630
    16  H    5.624999   6.678459   5.171838   4.554051   5.343962
    17  H    6.188869   7.206477   5.872220   3.784683   6.363118
    18  H    5.296189   6.368250   5.250083   5.436354   5.078138
    19  H    2.197438   3.285472   2.191084   5.670461   2.080661
    20  N    6.341389   7.304801   5.890567   2.928661   6.664208
    21  O    6.809871   7.659919   6.047056   0.781408   7.272004
    22  H    6.752626   7.840192   6.538842   5.210191   6.534820
    23  H    6.675855   7.565298   6.255011   3.216829   7.122841
                    6          7          8          9         10
     6  H    0.000000
     7  C    6.173481   0.000000
     8  C    5.221370   1.539115   0.000000
     9  C    3.804292   2.477522   1.521354   0.000000
    10  N    5.473106   2.490045   1.475362   2.437797   0.000000
    11  O    3.778186   2.713305   2.421882   1.227938   3.463063
    12  O    3.053740   3.675826   2.369245   1.343831   2.723175
    13  C    6.029674   1.501385   2.510403   2.910818   2.976530
    14  H    7.170129   1.096474   2.174610   3.439769   2.743450
    15  H    6.332486   1.091969   2.160613   2.720492   3.423114
    16  H    5.689726   2.155888   1.098138   2.125307   2.149773
    17  H    5.661103   2.519443   2.441706   2.978788   1.790831
    18  H    4.892602   3.361625   2.081690   2.521535   1.019283
    19  H    2.129916   4.438671   3.267616   1.970601   3.659389
    20  N    5.839541   2.424215   2.862497   3.202261   2.678990
    21  O    6.561912   2.479133   3.676285   3.808636   4.290310
    22  H    6.432825   2.870528   2.098038   3.340478   1.017462
    23  H    6.070459   3.362914   3.838774   3.968584   3.577723
                   11         12         13         14         15
    11  O    0.000000
    12  O    2.286245   0.000000
    13  C    2.805572   4.080861   0.000000
    14  H    3.802225   4.512852   2.123434   0.000000
    15  H    2.621499   4.005259   2.130782   1.771124   0.000000
    16  H    3.026729   2.715358   3.444094   2.521757   2.433907
    17  H    3.495479   3.586095   1.988519   2.854401   3.533832
    18  H    3.656231   2.272415   3.754796   3.733008   4.195121
    19  H    2.471210   0.984055   4.687748   5.358426   4.644862
    20  N    3.341132   4.058317   1.297157   2.865865   3.290545
    21  O    3.286734   5.043936   1.321393   3.026220   2.612009
    22  H    4.362981   3.603113   3.526542   2.726407   3.819362
    23  H    3.932929   4.741938   2.016724   3.785954   4.128168
                   16         17         18         19         20
    16  H    0.000000
    17  H    3.467704   0.000000
    18  H    2.598926   2.375549   0.000000
    19  H    3.600926   4.303542   3.149942   0.000000
    20  N    3.923872   1.052876   3.310106   4.659557   0.000000
    21  O    4.517986   3.170662   5.029155   5.491796   2.236680
    22  H    2.421661   2.366391   1.672511   4.566362   3.262290
    23  H    4.915437   1.823621   4.081808   5.211632   1.015211
                   21         22         23
    21  O    0.000000
    22  H    4.836390   0.000000
    23  H    2.444890   4.156696   0.000000
 Stoichiometry    C5H13N2O3(1+)
 Framework group  C1[X(C5H13N2O3)]
 Deg. of freedom    63
 Full point group                 C1      NOp   1
 Largest Abelian subgroup         C1      NOp   1
 Largest concise Abelian subgroup C1      NOp   1
                         Standard orientation:                         
 ---------------------------------------------------------------------
 Center     Atomic      Atomic             Coordinates (Angstroms)
 Number     Number       Type             X           Y           Z
 ---------------------------------------------------------------------
      1          6           0       -4.369131   -0.943536    0.318219
      2          1           0       -5.273588   -1.546673    0.393486
      3          1           0       -3.656022   -1.472267   -0.318607
      4          1           0        2.345704   -2.168766   -0.723884
      5          1           0       -4.650689    0.019135   -0.117948
      6          1           0       -3.969279   -0.817631    1.328132
      7          6           0        1.649314    0.284763   -0.980115
      8          6           0        0.419688    1.163856   -0.690129
      9          6           0       -0.764713    0.246828   -0.424101
     10          7           0        0.636675    2.018292    0.492896
     11          8           0       -0.729760   -0.966386   -0.610445
     12          8           0       -1.820434    0.932707    0.045903
     13          6           0        1.945069   -0.635522    0.168694
     14          1           0        2.528385    0.915054   -1.159623
     15          1           0        1.465713   -0.304516   -1.880912
     16          1           0        0.187038    1.746146   -1.591639
     17          1           0        1.460913    0.775109    1.483958
     18          1           0       -0.243563    2.325240    0.905089
     19          1           0       -2.628490    0.392399    0.199126
     20          7           0        1.837559   -0.203299    1.386988
     21          8           0        2.369146   -1.875604    0.000067
     22          1           0        1.239525    2.816895    0.308416
     23          1           0        2.041727   -0.809149    2.175604
 ---------------------------------------------------------------------
 Rotational constants (GHZ):      1.8064260      0.7178167      0.6063859
 Leave Link  202 at Thu Mar 12 19:26:13 2020, MaxMem=    33554432 cpu:         0.0
 (Enter /usr/local/gaussian09d01/g09/l301.exe)
 Standard basis: 6-31G (6D, 7F)
 Ernie: Thresh=  0.10000D-02 Tol=  0.10000D-05 Strict=F.
 There are   116 symmetry adapted cartesian basis functions of A   symmetry.
 There are   116 symmetry adapted basis functions of A   symmetry.
   116 basis functions,   272 primitive gaussians,   116 cartesian basis functions
    40 alpha electrons       40 beta electrons
       nuclear repulsion energy       587.9976193973 Hartrees.
 IExCor= 4336 DFT=T Ex+Corr=M062X ExCW=0 ScaHFX=  0.540000
 ScaDFX=  1.000000  1.000000  1.000000  1.000000 ScalE2=  1.000000  1.000000
 IRadAn=      0 IRanWt=     -1 IRanGd=            0 ICorTp=0 IEmpDi=  4
 NAtoms=   23 NActive=   23 NUniq=   23 SFac= 1.00D+00 NAtFMM=   60 NAOKFM=F Big=F
 Integral buffers will be    131072 words long.
 Raffenetti 2 integral format.
 Two-electron integral symmetry is turned on.
 Leave Link  301 at Thu Mar 12 19:26:14 2020, MaxMem=    33554432 cpu:         0.0
 (Enter /usr/local/gaussian09d01/g09/l302.exe)
 NPDir=0 NMtPBC=     1 NCelOv=     1 NCel=       1 NClECP=     1 NCelD=      1
         NCelK=      1 NCelE2=     1 NClLst=     1 CellRange=     0.0.
 One-electron integrals computed using PRISM.
 NBasis=   116 RedAO= T EigKep=  3.50D-03  NBF=   116
 NBsUse=   116 1.00D-06 EigRej= -1.00D+00 NBFU=   116
 Precomputing XC quadrature grid using
 IXCGrd= 4 IRadAn=           0 IRanWt=          -1 IRanGd=           0 AccXCQ= 0.00D+00.
 Generated NRdTot=       0 NPtTot=           0 NUsed=           0 NTot=          32
 NSgBfM=   115   115   115   115   115 MxSgAt=    23 MxSgA2=    23.
 Leave Link  302 at Thu Mar 12 19:26:14 2020, MaxMem=    33554432 cpu:         0.3
 (Enter /usr/local/gaussian09d01/g09/l303.exe)
 DipDrv:  MaxL=1.
 Leave Link  303 at Thu Mar 12 19:26:14 2020, MaxMem=    33554432 cpu:         0.0
 (Enter /usr/local/gaussian09d01/g09/l401.exe)
 ExpMin= 1.61D-01 ExpMax= 5.48D+03 ExpMxC= 8.25D+02 IAcc=1 IRadAn=         1 AccDes= 0.00D+00
 Harris functional with IExCor= 1009 and IRadAn=       1 diagonalized for initial guess.
 HarFok:  IExCor= 1009 AccDes= 0.00D+00 IRadAn=         1 IDoV= 1 UseB2=F ITyADJ=14
 ICtDFT=  3500011 ScaDFX=  1.000000  1.000000  1.000000  1.000000
 FoFCou: FMM=F IPFlag=           0 FMFlag=      100000 FMFlg1=           0
         NFxFlg=           0 DoJE=T BraDBF=F KetDBF=T FulRan=T
         wScrn=  0.000000 ICntrl=     500 IOpCl=  0 I1Cent=   200000004 NGrid=           0
         NMat0=    1 NMatS0=      1 NMatT0=    0 NMatD0=    1 NMtDS0=    0 NMtDT0=    0
 Petite list used in FoFCou.
 Harris En= -532.690953164686    
 JPrj=0 DoOrth=F DoCkMO=F.
 Leave Link  401 at Thu Mar 12 19:26:15 2020, MaxMem=    33554432 cpu:         0.9
 (Enter /usr/local/gaussian09d01/g09/l502.exe)
 Closed shell SCF:
 Using DIIS extrapolation, IDIIS=  1040.
 Integral symmetry usage will be decided dynamically.
 Keep R1 ints in memory in canonical form, NReq=24030401.
 IVT=       60528 IEndB=       60528 NGot=    33554432 MDV=    10465614
 LenX=    10465614 LenY=    10451717
 Requested convergence on RMS density matrix=1.00D-08 within 128 cycles.
 Requested convergence on MAX density matrix=1.00D-06.
 Requested convergence on             energy=1.00D-06.
 No special actions if energy rises.
 FoFCou: FMM=F IPFlag=           0 FMFlag=           0 FMFlg1=           0
         NFxFlg=           0 DoJE=F BraDBF=F KetDBF=F FulRan=T
         wScrn=  0.000000 ICntrl=     600 IOpCl=  0 I1Cent=           0 NGrid=           0
         NMat0=    1 NMatS0=   6786 NMatT0=    0 NMatD0=    1 NMtDS0=    0 NMtDT0=    0
 Symmetry not used in FoFCou.
 Integral accuracy reduced to 1.0D-05 until final iterations.

 Cycle   1  Pass 0  IDiag  1:
 E= -532.583364280232    
 DIIS: error= 5.35D-02 at cycle   1 NSaved=   1.
 NSaved= 1 IEnMin= 1 EnMin= -532.583364280232     IErMin= 1 ErrMin= 5.35D-02
 ErrMax= 5.35D-02  0.00D+00 EMaxC= 1.00D-01 BMatC= 3.38D-01 BMatP= 3.38D-01
 IDIUse=3 WtCom= 4.65D-01 WtEn= 5.35D-01
 Coeff-Com:  0.100D+01
 Coeff-En:   0.100D+01
 Coeff:      0.100D+01
 Gap=     0.250 Goal=   None    Shift=    0.000
 GapD=    0.250 DampG=1.000 DampE=0.500 DampFc=0.5000 IDamp=-1.
 Damping current iteration by 5.00D-01
 RMSDP=8.68D-03 MaxDP=1.64D-01              OVMax= 1.77D-01

 Cycle   2  Pass 0  IDiag  1:
 E= -532.716387262751     Delta-E=       -0.133022982518 Rises=F Damp=T
 DIIS: error= 8.64D-03 at cycle   2 NSaved=   2.
 NSaved= 2 IEnMin= 2 EnMin= -532.716387262751     IErMin= 2 ErrMin= 8.64D-03
 ErrMax= 8.64D-03  0.00D+00 EMaxC= 1.00D-01 BMatC= 1.93D-02 BMatP= 3.38D-01
 IDIUse=3 WtCom= 9.14D-01 WtEn= 8.64D-02
 Coeff-Com:  0.339D-01 0.966D+00
 Coeff-En:   0.419D-01 0.958D+00
 Coeff:      0.346D-01 0.965D+00
 Gap=     0.359 Goal=   None    Shift=    0.000
 RMSDP=2.13D-03 MaxDP=3.75D-02 DE=-1.33D-01 OVMax= 1.10D-01

 Cycle   3  Pass 0  IDiag  1:
 E= -532.855001261202     Delta-E=       -0.138613998451 Rises=F Damp=F
 DIIS: error= 1.18D-02 at cycle   3 NSaved=   3.
 NSaved= 3 IEnMin= 3 EnMin= -532.855001261202     IErMin= 2 ErrMin= 8.64D-03
 ErrMax= 1.18D-02  0.00D+00 EMaxC= 1.00D-01 BMatC= 1.56D-02 BMatP= 1.93D-02
 IDIUse=3 WtCom= 8.82D-01 WtEn= 1.18D-01
 Coeff-Com: -0.209D-01 0.475D+00 0.546D+00
 Coeff-En:   0.000D+00 0.000D+00 0.100D+01
 Coeff:     -0.185D-01 0.419D+00 0.599D+00
 Gap=     0.331 Goal=   None    Shift=    0.000
 RMSDP=1.42D-03 MaxDP=3.68D-02 DE=-1.39D-01 OVMax= 5.75D-02

 Cycle   4  Pass 0  IDiag  1:
 E= -532.865106018917     Delta-E=       -0.010104757715 Rises=F Damp=F
 DIIS: error= 7.57D-03 at cycle   4 NSaved=   4.
 NSaved= 4 IEnMin= 4 EnMin= -532.865106018917     IErMin= 4 ErrMin= 7.57D-03
 ErrMax= 7.57D-03  0.00D+00 EMaxC= 1.00D-01 BMatC= 3.77D-03 BMatP= 1.56D-02
 IDIUse=3 WtCom= 9.24D-01 WtEn= 7.57D-02
 Coeff-Com: -0.644D-02 0.398D-01 0.336D+00 0.631D+00
 Coeff-En:   0.000D+00 0.000D+00 0.192D+00 0.808D+00
 Coeff:     -0.596D-02 0.368D-01 0.325D+00 0.644D+00
 Gap=     0.328 Goal=   None    Shift=    0.000
 RMSDP=5.38D-04 MaxDP=1.17D-02 DE=-1.01D-02 OVMax= 1.90D-02

 Cycle   5  Pass 0  IDiag  1:
 E= -532.867809058372     Delta-E=       -0.002703039455 Rises=F Damp=F
 DIIS: error= 1.08D-03 at cycle   5 NSaved=   5.
 NSaved= 5 IEnMin= 5 EnMin= -532.867809058372     IErMin= 5 ErrMin= 1.08D-03
 ErrMax= 1.08D-03  0.00D+00 EMaxC= 1.00D-01 BMatC= 1.77D-04 BMatP= 3.77D-03
 IDIUse=3 WtCom= 9.89D-01 WtEn= 1.08D-02
 Coeff-Com: -0.829D-03-0.759D-02 0.138D+00 0.331D+00 0.540D+00
 Coeff-En:   0.000D+00 0.000D+00 0.000D+00 0.000D+00 0.100D+01
 Coeff:     -0.820D-03-0.751D-02 0.136D+00 0.328D+00 0.545D+00
 Gap=     0.326 Goal=   None    Shift=    0.000
 RMSDP=1.13D-04 MaxDP=2.17D-03 DE=-2.70D-03 OVMax= 3.92D-03

 Cycle   6  Pass 0  IDiag  1:
 E= -532.867965467820     Delta-E=       -0.000156409448 Rises=F Damp=F
 DIIS: error= 2.88D-04 at cycle   6 NSaved=   6.
 NSaved= 6 IEnMin= 6 EnMin= -532.867965467820     IErMin= 6 ErrMin= 2.88D-04
 ErrMax= 2.88D-04  0.00D+00 EMaxC= 1.00D-01 BMatC= 4.34D-06 BMatP= 1.77D-04
 IDIUse=3 WtCom= 9.97D-01 WtEn= 2.88D-03
 Coeff-Com:  0.506D-03-0.394D-02 0.199D-01 0.409D-01 0.144D+00 0.799D+00
 Coeff-En:   0.000D+00 0.000D+00 0.000D+00 0.000D+00 0.000D+00 0.100D+01
 Coeff:      0.505D-03-0.393D-02 0.198D-01 0.408D-01 0.143D+00 0.800D+00
 Gap=     0.326 Goal=   None    Shift=    0.000
 RMSDP=2.57D-05 MaxDP=3.78D-04 DE=-1.56D-04 OVMax= 5.72D-04

 Cycle   7  Pass 0  IDiag  1:
 E= -532.867969483258     Delta-E=       -0.000004015438 Rises=F Damp=F
 DIIS: error= 8.87D-05 at cycle   7 NSaved=   7.
 NSaved= 7 IEnMin= 7 EnMin= -532.867969483258     IErMin= 7 ErrMin= 8.87D-05
 ErrMax= 8.87D-05  0.00D+00 EMaxC= 1.00D-01 BMatC= 5.24D-07 BMatP= 4.34D-06
 IDIUse=1 WtCom= 1.00D+00 WtEn= 0.00D+00
 Coeff-Com:  0.388D-03-0.534D-03-0.119D-01-0.351D-01-0.226D-01 0.245D+00
 Coeff-Com:  0.825D+00
 Coeff:      0.388D-03-0.534D-03-0.119D-01-0.351D-01-0.226D-01 0.245D+00
 Coeff:      0.825D+00
 Gap=     0.326 Goal=   None    Shift=    0.000
 RMSDP=1.36D-05 MaxDP=2.54D-04 DE=-4.02D-06 OVMax= 3.25D-04

 Cycle   8  Pass 0  IDiag  1:
 E= -532.867970130534     Delta-E=       -0.000000647276 Rises=F Damp=F
 DIIS: error= 2.78D-05 at cycle   8 NSaved=   8.
 NSaved= 8 IEnMin= 8 EnMin= -532.867970130534     IErMin= 8 ErrMin= 2.78D-05
 ErrMax= 2.78D-05  0.00D+00 EMaxC= 1.00D-01 BMatC= 4.75D-08 BMatP= 5.24D-07
 IDIUse=1 WtCom= 1.00D+00 WtEn= 0.00D+00
 Coeff-Com:  0.895D-04 0.155D-03-0.491D-02-0.143D-01-0.183D-01-0.491D-03
 Coeff-Com:  0.264D+00 0.774D+00
 Coeff:      0.895D-04 0.155D-03-0.491D-02-0.143D-01-0.183D-01-0.491D-03
 Coeff:      0.264D+00 0.774D+00
 Gap=     0.326 Goal=   None    Shift=    0.000
 RMSDP=3.37D-06 MaxDP=4.68D-05 DE=-6.47D-07 OVMax= 8.96D-05

 Initial convergence to 1.0D-05 achieved.  Increase integral accuracy.
 Cycle   9  Pass 1  IDiag  1:
 E= -532.868234583499     Delta-E=       -0.000264452965 Rises=F Damp=F
 DIIS: error= 1.40D-04 at cycle   1 NSaved=   1.
 NSaved= 1 IEnMin= 1 EnMin= -532.868234583499     IErMin= 1 ErrMin= 1.40D-04
 ErrMax= 1.40D-04  0.00D+00 EMaxC= 1.00D-01 BMatC= 1.79D-06 BMatP= 1.79D-06
 IDIUse=3 WtCom= 9.99D-01 WtEn= 1.40D-03
 Coeff-Com:  0.100D+01
 Coeff-En:   0.100D+01
 Coeff:      0.100D+01
 Gap=     0.326 Goal=   None    Shift=    0.000
 RMSDP=3.37D-06 MaxDP=4.68D-05 DE=-2.64D-04 OVMax= 1.87D-04

 Cycle  10  Pass 1  IDiag  1:
 E= -532.868236207547     Delta-E=       -0.000001624047 Rises=F Damp=F
 DIIS: error= 7.00D-05 at cycle   2 NSaved=   2.
 NSaved= 2 IEnMin= 2 EnMin= -532.868236207547     IErMin= 2 ErrMin= 7.00D-05
 ErrMax= 7.00D-05  0.00D+00 EMaxC= 1.00D-01 BMatC= 3.10D-07 BMatP= 1.79D-06
 IDIUse=1 WtCom= 1.00D+00 WtEn= 0.00D+00
 Coeff-Com:  0.212D+00 0.788D+00
 Coeff:      0.212D+00 0.788D+00
 Gap=     0.326 Goal=   None    Shift=    0.000
 RMSDP=6.83D-06 MaxDP=1.38D-04 DE=-1.62D-06 OVMax= 1.51D-04

 Cycle  11  Pass 1  IDiag  1:
 E= -532.868236429052     Delta-E=       -0.000000221505 Rises=F Damp=F
 DIIS: error= 3.13D-05 at cycle   3 NSaved=   3.
 NSaved= 3 IEnMin= 3 EnMin= -532.868236429052     IErMin= 3 ErrMin= 3.13D-05
 ErrMax= 3.13D-05  0.00D+00 EMaxC= 1.00D-01 BMatC= 1.18D-07 BMatP= 3.10D-07
 IDIUse=1 WtCom= 1.00D+00 WtEn= 0.00D+00
 Coeff-Com: -0.361D-01 0.365D+00 0.671D+00
 Coeff:     -0.361D-01 0.365D+00 0.671D+00
 Gap=     0.326 Goal=   None    Shift=    0.000
 RMSDP=3.31D-06 MaxDP=7.24D-05 DE=-2.22D-07 OVMax= 7.50D-05

 Cycle  12  Pass 1  IDiag  1:
 E= -532.868236527653     Delta-E=       -0.000000098602 Rises=F Damp=F
 DIIS: error= 7.63D-06 at cycle   4 NSaved=   4.
 NSaved= 4 IEnMin= 4 EnMin= -532.868236527653     IErMin= 4 ErrMin= 7.63D-06
 ErrMax= 7.63D-06  0.00D+00 EMaxC= 1.00D-01 BMatC= 8.70D-09 BMatP= 1.18D-07
 IDIUse=1 WtCom= 1.00D+00 WtEn= 0.00D+00
 Coeff-Com: -0.274D-01 0.158D+00 0.346D+00 0.524D+00
 Coeff:     -0.274D-01 0.158D+00 0.346D+00 0.524D+00
 Gap=     0.326 Goal=   None    Shift=    0.000
 RMSDP=7.50D-07 MaxDP=1.58D-05 DE=-9.86D-08 OVMax= 2.46D-05

 Cycle  13  Pass 1  IDiag  1:
 E= -532.868236534842     Delta-E=       -0.000000007188 Rises=F Damp=F
 DIIS: error= 2.51D-06 at cycle   5 NSaved=   5.
 NSaved= 5 IEnMin= 5 EnMin= -532.868236534842     IErMin= 5 ErrMin= 2.51D-06
 ErrMax= 2.51D-06  0.00D+00 EMaxC= 1.00D-01 BMatC= 3.82D-10 BMatP= 8.70D-09
 IDIUse=1 WtCom= 1.00D+00 WtEn= 0.00D+00
 Coeff-Com: -0.519D-02 0.100D-01 0.349D-01 0.165D+00 0.795D+00
 Coeff:     -0.519D-02 0.100D-01 0.349D-01 0.165D+00 0.795D+00
 Gap=     0.326 Goal=   None    Shift=    0.000
 RMSDP=3.14D-07 MaxDP=6.04D-06 DE=-7.19D-09 OVMax= 7.32D-06

 Cycle  14  Pass 1  IDiag  1:
 E= -532.868236535100     Delta-E=       -0.000000000258 Rises=F Damp=F
 DIIS: error= 1.42D-06 at cycle   6 NSaved=   6.
 NSaved= 6 IEnMin= 6 EnMin= -532.868236535100     IErMin= 6 ErrMin= 1.42D-06
 ErrMax= 1.42D-06  0.00D+00 EMaxC= 1.00D-01 BMatC= 1.83D-10 BMatP= 3.82D-10
 IDIUse=1 WtCom= 1.00D+00 WtEn= 0.00D+00
 Coeff-Com:  0.129D-02-0.180D-01-0.325D-01 0.236D-01 0.475D+00 0.550D+00
 Coeff:      0.129D-02-0.180D-01-0.325D-01 0.236D-01 0.475D+00 0.550D+00
 Gap=     0.326 Goal=   None    Shift=    0.000
 RMSDP=1.11D-07 MaxDP=3.24D-06 DE=-2.58D-10 OVMax= 5.67D-06

 Cycle  15  Pass 1  IDiag  1:
 E= -532.868236535245     Delta-E=       -0.000000000145 Rises=F Damp=F
 DIIS: error= 3.58D-07 at cycle   7 NSaved=   7.
 NSaved= 7 IEnMin= 7 EnMin= -532.868236535245     IErMin= 7 ErrMin= 3.58D-07
 ErrMax= 3.58D-07  0.00D+00 EMaxC= 1.00D-01 BMatC= 6.41D-12 BMatP= 1.83D-10
 IDIUse=1 WtCom= 1.00D+00 WtEn= 0.00D+00
 Coeff-Com:  0.712D-03-0.536D-02-0.115D-01-0.276D-02 0.468D-01 0.171D+00
 Coeff-Com:  0.801D+00
 Coeff:      0.712D-03-0.536D-02-0.115D-01-0.276D-02 0.468D-01 0.171D+00
 Coeff:      0.801D+00
 Gap=     0.326 Goal=   None    Shift=    0.000
 RMSDP=4.09D-08 MaxDP=7.43D-07 DE=-1.45D-10 OVMax= 1.04D-06

 Cycle  16  Pass 1  IDiag  1:
 E= -532.868236535247     Delta-E=       -0.000000000002 Rises=F Damp=F
 DIIS: error= 7.88D-08 at cycle   8 NSaved=   8.
 NSaved= 8 IEnMin= 8 EnMin= -532.868236535247     IErMin= 8 ErrMin= 7.88D-08
 ErrMax= 7.88D-08  0.00D+00 EMaxC= 1.00D-01 BMatC= 1.09D-12 BMatP= 6.41D-12
 IDIUse=1 WtCom= 1.00D+00 WtEn= 0.00D+00
 Coeff-Com:  0.133D-03 0.934D-04-0.798D-03-0.372D-02-0.511D-01 0.658D-02
 Coeff-Com:  0.354D+00 0.695D+00
 Coeff:      0.133D-03 0.934D-04-0.798D-03-0.372D-02-0.511D-01 0.658D-02
 Coeff:      0.354D+00 0.695D+00
 Gap=     0.326 Goal=   None    Shift=    0.000
 RMSDP=1.37D-08 MaxDP=2.53D-07 DE=-2.27D-12 OVMax= 4.15D-07

 Cycle  17  Pass 1  IDiag  1:
 E= -532.868236535263     Delta-E=       -0.000000000015 Rises=F Damp=F
 DIIS: error= 2.61D-08 at cycle   9 NSaved=   9.
 NSaved= 9 IEnMin= 9 EnMin= -532.868236535263     IErMin= 9 ErrMin= 2.61D-08
 ErrMax= 2.61D-08  0.00D+00 EMaxC= 1.00D-01 BMatC= 8.89D-14 BMatP= 1.09D-12
 IDIUse=1 WtCom= 1.00D+00 WtEn= 0.00D+00
 Coeff-Com: -0.245D-04 0.563D-03 0.905D-03-0.710D-03-0.223D-01-0.127D-01
 Coeff-Com:  0.286D-01 0.235D+00 0.770D+00
 Coeff:     -0.245D-04 0.563D-03 0.905D-03-0.710D-03-0.223D-01-0.127D-01
 Coeff:      0.286D-01 0.235D+00 0.770D+00
 Gap=     0.326 Goal=   None    Shift=    0.000
 RMSDP=4.79D-09 MaxDP=8.66D-08 DE=-1.52D-11 OVMax= 1.96D-07

 SCF Done:  E(RM062X) =  -532.868236535     A.U. after   17 cycles
            NFock= 17  Conv=0.48D-08     -V/T= 2.0045
 KE= 5.304878844356D+02 PE=-2.407947075016D+03 EE= 7.565933346481D+02
 Leave Link  502 at Thu Mar 12 19:27:10 2020, MaxMem=    33554432 cpu:        55.3
 (Enter /usr/local/gaussian09d01/g09/l601.exe)
 Copying SCF densities to generalized density rwf, IOpCl= 0 IROHF=0.

 **********************************************************************

            Population analysis using the SCF density.

 **********************************************************************

 Orbital symmetries:
       Occupied  (A) (A) (A) (A) (A) (A) (A) (A) (A) (A) (A) (A)
                 (A) (A) (A) (A) (A) (A) (A) (A) (A) (A) (A) (A)
                 (A) (A) (A) (A) (A) (A) (A) (A) (A) (A) (A) (A)
                 (A) (A) (A) (A)
       Virtual   (A) (A) (A) (A) (A) (A) (A) (A) (A) (A) (A) (A)
                 (A) (A) (A) (A) (A) (A) (A) (A) (A) (A) (A) (A)
                 (A) (A) (A) (A) (A) (A) (A) (A) (A) (A) (A) (A)
                 (A) (A) (A) (A) (A) (A) (A) (A) (A) (A) (A) (A)
                 (A) (A) (A) (A) (A) (A) (A) (A) (A) (A) (A) (A)
                 (A) (A) (A) (A) (A) (A) (A) (A) (A) (A) (A) (A)
                 (A) (A) (A) (A)
 The electronic state is 1-A.
 Alpha  occ. eigenvalues --  -19.87517 -19.84229 -19.80747 -14.99237 -14.93121
 Alpha  occ. eigenvalues --  -10.90395 -10.86386 -10.78199 -10.75813 -10.63132
 Alpha  occ. eigenvalues --   -1.47686  -1.40465  -1.31458  -1.26996  -1.18679
 Alpha  occ. eigenvalues --   -1.06925  -0.99117  -0.96128  -0.90125  -0.87408
 Alpha  occ. eigenvalues --   -0.84729  -0.80065  -0.77858  -0.74321  -0.73937
 Alpha  occ. eigenvalues --   -0.73625  -0.72828  -0.69546  -0.66670  -0.65191
 Alpha  occ. eigenvalues --   -0.64011  -0.62753  -0.60927  -0.57283  -0.57113
 Alpha  occ. eigenvalues --   -0.56930  -0.56001  -0.54361  -0.51808  -0.49576
 Alpha virt. eigenvalues --   -0.16977  -0.12451  -0.04310  -0.02279  -0.01365
 Alpha virt. eigenvalues --   -0.00318   0.00839   0.01484   0.04605   0.05406
 Alpha virt. eigenvalues --    0.06259   0.07126   0.07871   0.10920   0.11147
 Alpha virt. eigenvalues --    0.11331   0.12062   0.12729   0.16194   0.18558
 Alpha virt. eigenvalues --    0.20731   0.23268   0.27540   0.38562   0.41032
 Alpha virt. eigenvalues --    0.43419   0.45622   0.46034   0.47969   0.48094
 Alpha virt. eigenvalues --    0.49477   0.51525   0.51846   0.54842   0.57742
 Alpha virt. eigenvalues --    0.58175   0.59514   0.62795   0.64005   0.67532
 Alpha virt. eigenvalues --    0.69334   0.70734   0.75082   0.76230   0.77869
 Alpha virt. eigenvalues --    0.78545   0.80309   0.81911   0.83910   0.85393
 Alpha virt. eigenvalues --    0.85727   0.87411   0.87918   0.88101   0.91836
 Alpha virt. eigenvalues --    0.92169   0.94461   0.95027   0.96181   1.01927
 Alpha virt. eigenvalues --    1.03942   1.06444   1.09759   1.11375   1.12079
 Alpha virt. eigenvalues --    1.14230   1.19238   1.27822   1.29667   1.33453
 Alpha virt. eigenvalues --    1.41992   1.54142   1.63591   1.74329   1.76359
 Alpha virt. eigenvalues --    1.86077
          Condensed to atoms (all electrons):
               1          2          3          4          5          6
     1  C    5.189438   0.375552   0.371704   0.000000   0.370135   0.370681
     2  H    0.375552   0.468273  -0.017875   0.000000  -0.019759  -0.020211
     3  H    0.371704  -0.017875   0.520938   0.000000  -0.029573  -0.030188
     4  H    0.000000   0.000000   0.000000   0.337562   0.000000   0.000000
     5  H    0.370135  -0.019759  -0.029573   0.000000   0.538165  -0.032298
     6  H    0.370681  -0.020211  -0.030188   0.000000  -0.032298   0.545784
     7  C    0.000000   0.000000  -0.000001  -0.006609   0.000000   0.000000
     8  C   -0.000004   0.000001   0.000083   0.000005  -0.000011  -0.000007
     9  C    0.000285   0.000037   0.001473   0.000069  -0.000155  -0.000131
    10  N    0.000000   0.000000  -0.000001   0.000032   0.000000   0.000000
    11  O   -0.001297   0.000015   0.003239   0.000420   0.000043   0.000016
    12  O   -0.005284   0.000175  -0.001613   0.000001  -0.000768  -0.000636
    13  C    0.000000   0.000000   0.000000  -0.017502   0.000000   0.000000
    14  H    0.000000   0.000000   0.000000  -0.000153   0.000000   0.000000
    15  H    0.000000   0.000000   0.000000   0.003076   0.000000   0.000000
    16  H    0.000001   0.000000  -0.000002   0.000007   0.000000   0.000000
    17  H    0.000000   0.000000   0.000000  -0.000020   0.000000   0.000000
    18  H   -0.000001   0.000000   0.000000   0.000000   0.000000   0.000000
    19  H    0.027154  -0.000949   0.002071   0.000000   0.005228   0.004747
    20  N    0.000000   0.000000   0.000000   0.006413   0.000000   0.000000
    21  O    0.000000   0.000000   0.000000   0.310738   0.000000   0.000000
    22  H    0.000000   0.000000   0.000000  -0.000001   0.000000   0.000000
    23  H    0.000000   0.000000   0.000000   0.000021   0.000000   0.000000
               7          8          9         10         11         12
     1  C    0.000000  -0.000004   0.000285   0.000000  -0.001297  -0.005284
     2  H    0.000000   0.000001   0.000037   0.000000   0.000015   0.000175
     3  H   -0.000001   0.000083   0.001473  -0.000001   0.003239  -0.001613
     4  H   -0.006609   0.000005   0.000069   0.000032   0.000420   0.000001
     5  H    0.000000  -0.000011  -0.000155   0.000000   0.000043  -0.000768
     6  H    0.000000  -0.000007  -0.000131   0.000000   0.000016  -0.000636
     7  C    5.447179   0.218078  -0.048010  -0.074718   0.007741   0.005341
     8  C    0.218078   5.570185   0.150306   0.192662  -0.124374  -0.148233
     9  C   -0.048010   0.150306   4.754874  -0.049235   0.494187   0.196412
    10  N   -0.074718   0.192662  -0.049235   7.096541   0.002205   0.001776
    11  O    0.007741  -0.124374   0.494187   0.002205   8.124094  -0.108374
    12  O    0.005341  -0.148233   0.196412   0.001776  -0.108374   8.415875
    13  C    0.263915  -0.015688  -0.007432  -0.006884   0.011731  -0.000502
    14  H    0.376229  -0.027791   0.005570  -0.001445   0.000419  -0.000025
    15  H    0.366317  -0.027310  -0.001864   0.003723   0.004646   0.000132
    16  H   -0.043313   0.385811  -0.026653  -0.035642   0.001056   0.000880
    17  H   -0.010264  -0.010865  -0.000589   0.096841   0.000197  -0.000074
    18  H    0.004841  -0.034121  -0.007425   0.320705   0.000225   0.013190
    19  H   -0.000158   0.005377  -0.018852  -0.000117  -0.000695   0.237020
    20  N   -0.104988   0.003393   0.000011  -0.075521  -0.003527   0.000051
    21  O   -0.070490   0.002699  -0.000446  -0.000166  -0.001648  -0.000001
    22  H   -0.000869  -0.029142   0.004126   0.322166  -0.000080  -0.000003
    23  H    0.003478  -0.000194  -0.000101   0.001452   0.000022   0.000003
              13         14         15         16         17         18
     1  C    0.000000   0.000000   0.000000   0.000001   0.000000  -0.000001
     2  H    0.000000   0.000000   0.000000   0.000000   0.000000   0.000000
     3  H    0.000000   0.000000   0.000000  -0.000002   0.000000   0.000000
     4  H   -0.017502  -0.000153   0.003076   0.000007  -0.000020   0.000000
     5  H    0.000000   0.000000   0.000000   0.000000   0.000000   0.000000
     6  H    0.000000   0.000000   0.000000   0.000000   0.000000   0.000000
     7  C    0.263915   0.376229   0.366317  -0.043313  -0.010264   0.004841
     8  C   -0.015688  -0.027791  -0.027310   0.385811  -0.010865  -0.034121
     9  C   -0.007432   0.005570  -0.001864  -0.026653  -0.000589  -0.007425
    10  N   -0.006884  -0.001445   0.003723  -0.035642   0.096841   0.320705
    11  O    0.011731   0.000419   0.004646   0.001056   0.000197   0.000225
    12  O   -0.000502  -0.000025   0.000132   0.000880  -0.000074   0.013190
    13  C    4.626064  -0.035177  -0.030393   0.004125  -0.018603   0.000203
    14  H   -0.035177   0.438693  -0.015473  -0.003187  -0.000281  -0.000054
    15  H   -0.030393  -0.015473   0.456605  -0.000702   0.000383  -0.000099
    16  H    0.004125  -0.003187  -0.000702   0.457749   0.001000   0.000995
    17  H   -0.018603  -0.000281   0.000383   0.001000   0.251097  -0.000472
    18  H    0.000203  -0.000054  -0.000099   0.000995  -0.000472   0.336433
    19  H   -0.000011   0.000002  -0.000002  -0.000244  -0.000021  -0.000257
    20  N    0.299285  -0.001857   0.004461  -0.000319   0.233908   0.000281
    21  O    0.370674   0.000944  -0.002787  -0.000069   0.001021   0.000002
    22  H   -0.000254   0.001612  -0.000070  -0.003775  -0.001585  -0.020683
    23  H   -0.019632  -0.000126  -0.000064   0.000010  -0.001842  -0.000011
              19         20         21         22         23
     1  C    0.027154   0.000000   0.000000   0.000000   0.000000
     2  H   -0.000949   0.000000   0.000000   0.000000   0.000000
     3  H    0.002071   0.000000   0.000000   0.000000   0.000000
     4  H    0.000000   0.006413   0.310738  -0.000001   0.000021
     5  H    0.005228   0.000000   0.000000   0.000000   0.000000
     6  H    0.004747   0.000000   0.000000   0.000000   0.000000
     7  C   -0.000158  -0.104988  -0.070490  -0.000869   0.003478
     8  C    0.005377   0.003393   0.002699  -0.029142  -0.000194
     9  C   -0.018852   0.000011  -0.000446   0.004126  -0.000101
    10  N   -0.000117  -0.075521  -0.000166   0.322166   0.001452
    11  O   -0.000695  -0.003527  -0.001648  -0.000080   0.000022
    12  O    0.237020   0.000051  -0.000001  -0.000003   0.000003
    13  C   -0.000011   0.299285   0.370674  -0.000254  -0.019632
    14  H    0.000002  -0.001857   0.000944   0.001612  -0.000126
    15  H   -0.000002   0.004461  -0.002787  -0.000070  -0.000064
    16  H   -0.000244  -0.000319  -0.000069  -0.003775   0.000010
    17  H   -0.000021   0.233908   0.001021  -0.001585  -0.001842
    18  H   -0.000257   0.000281   0.000002  -0.020683  -0.000011
    19  H    0.274294   0.000011   0.000000   0.000016  -0.000001
    20  N    0.000011   7.124009  -0.111539   0.000929   0.306436
    21  O    0.000000  -0.111539   7.943598   0.000002  -0.000718
    22  H    0.000016   0.000929   0.000002   0.369084  -0.000020
    23  H   -0.000001   0.306436  -0.000718  -0.000020   0.290567
 Mulliken charges:
               1
     1  C   -0.698365
     2  H    0.214740
     3  H    0.179744
     4  H    0.365942
     5  H    0.168992
     6  H    0.162242
     7  C   -0.333697
     8  C   -0.110860
     9  C    0.553542
    10  N   -0.794374
    11  O   -0.410261
    12  O   -0.605342
    13  C    0.576081
    14  H    0.262101
    15  H    0.239422
    16  H    0.262272
    17  H    0.460167
    18  H    0.386249
    19  H    0.465386
    20  N   -0.681437
    21  O   -0.441813
    22  H    0.358546
    23  H    0.420722
 Sum of Mulliken charges =   1.00000
 Mulliken charges with hydrogens summed into heavy atoms:
               1
     1  C    0.027353
     7  C    0.167826
     8  C    0.151412
     9  C    0.553542
    10  N   -0.049579
    11  O   -0.410261
    12  O   -0.139956
    13  C    0.576081
    20  N    0.199453
    21  O   -0.075871
 Electronic spatial extent (au):  <R**2>=           1993.2813
 Charge=              1.0000 electrons
 Dipole moment (field-independent basis, Debye):
    X=              4.6249    Y=              2.2293    Z=              0.0865  Tot=              5.1349
 Quadrupole moment (field-independent basis, Debye-Ang):
   XX=            -33.4408   YY=            -48.8880   ZZ=            -48.1517
   XY=             -0.2687   XZ=             -2.8765   YZ=              0.2723
 Traceless Quadrupole moment (field-independent basis, Debye-Ang):
   XX=             10.0527   YY=             -5.3945   ZZ=             -4.6582
   XY=             -0.2687   XZ=             -2.8765   YZ=              0.2723
 Octapole moment (field-independent basis, Debye-Ang**2):
  XXX=            -20.3692  YYY=             17.9810  ZZZ=             12.6443  XYY=             21.8686
  XXY=            -16.1725  XXZ=              0.4598  XZZ=             22.7184  YZZ=             -4.8166
  YYZ=             -3.3823  XYZ=              4.8250
 Hexadecapole moment (field-independent basis, Debye-Ang**3):
 XXXX=          -1425.7171 YYYY=           -432.2328 ZZZZ=           -195.6809 XXXY=             27.3564
 XXXZ=            -28.4262 YYYX=            -10.5707 YYYZ=             33.6231 ZZZX=             29.5682
 ZZZY=             -7.7589 XXYY=           -333.6474 XXZZ=           -291.2593 YYZZ=           -111.0599
 XXYZ=              6.1691 YYXZ=            -20.4363 ZZXY=            -27.7193
 N-N= 5.879976193973D+02 E-N=-2.407947076198D+03  KE= 5.304878844356D+02
 No NMR shielding tensors so no spin-rotation constants.
 Leave Link  601 at Thu Mar 12 19:27:10 2020, MaxMem=    33554432 cpu:         0.1
 (Enter /usr/local/gaussian09d01/g09/l9999.exe)
 1\1\GINC-KARURA\SP\RM062X\6-31G\C5H13N2O3(1+)\RTAKE\12-Mar-2020\0\\#p 
 M062X/6-31G\\chk calc\\1,1\C,0,3.824482709,-1.14219544,1.17225369\H,0,
 4.799113079,-1.62961423,1.173808707\H,0,3.053614027,-1.916312598,1.160
 804944\H,0,-2.499703867,-2.690313952,-1.126478605\H,0,3.75960642,-0.53
 291794,2.07824618\H,0,3.765323683,-0.52154146,0.273951194\C,0,-2.40154
 2122,-0.705499021,0.492562549\C,0,-1.33365594,0.193207044,1.141270536\
 C,0,0.021967089,-0.47033751,0.950186539\N,0,-1.303304814,1.529148773,0
 .515945207\O,0,0.155929117,-1.611462803,0.51692019\O,0,1.024922388,0.3
 53392554,1.298656\C,0,-2.121889445,-0.918337302,-0.967112723\H,0,-3.39
 229932,-0.247402335,0.596496855\H,0,-2.419176945,-1.669900059,1.004436
 439\H,0,-1.526304416,0.239474424,2.221387894\H,0,-1.503902114,0.960750
 702,-1.170400229\H,0,-0.410560182,1.997532273,0.666150752\H,0,1.924402
 159,-0.039925506,1.230818645\N,0,-1.700457396,0.069239192,-1.694919761
 \O,0,-2.336854815,-2.071648312,-1.575178364\H,0,-2.071900591,2.1285565
 43,0.807834339\H,0,-1.514408501,-0.054510917,-2.685235696\\Version=ES6
 4L-G09RevD.01\State=1-A\HF=-532.8682365\RMSD=4.788e-09\Dipole=-1.83617
 99,0.7839031,-0.3085922\Quadrupole=7.0848638,-3.7076464,-3.3772174,1.2
 281175,2.7239151,0.1500951\PG=C01 [X(C5H13N2O3)]\\@


 FORGIVE MY NONSENSE AS I ALSO FORGIVE THOSE WHO THINK THEY TALK SENSE

                                                       -- ROBERT FROST
 Job cpu time:       0 days  0 hours  0 minutes 56.7 seconds.
 File lengths (MBytes):  RWF=      7 Int=      0 D2E=      0 Chk=      2 Scr=      1
 Normal termination of Gaussian 09 at Thu Mar 12 19:27:10 2020.
