 Entering Gaussian System, Link 0=g09
 Input=./h4_o21_15.gjf
 Output=./h4_o21_15.log
 Initial command:
 /usr/local/gaussian09d01/g09/l1.exe "/scr/Gau-22641.inp" -scrdir="/scr/"
 Entering Link 1 = /usr/local/gaussian09d01/g09/l1.exe PID=     22642.
  
 Copyright (c) 1988,1990,1992,1993,1995,1998,2003,2009,2013,
            Gaussian, Inc.  All Rights Reserved.
  
 This is part of the Gaussian(R) 09 program.  It is based on
 the Gaussian(R) 03 system (copyright 2003, Gaussian, Inc.),
 the Gaussian(R) 98 system (copyright 1998, Gaussian, Inc.),
 the Gaussian(R) 94 system (copyright 1995, Gaussian, Inc.),
 the Gaussian 92(TM) system (copyright 1992, Gaussian, Inc.),
 the Gaussian 90(TM) system (copyright 1990, Gaussian, Inc.),
 the Gaussian 88(TM) system (copyright 1988, Gaussian, Inc.),
 the Gaussian 86(TM) system (copyright 1986, Carnegie Mellon
 University), and the Gaussian 82(TM) system (copyright 1983,
 Carnegie Mellon University). Gaussian is a federally registered
 trademark of Gaussian, Inc.
  
 This software contains proprietary and confidential information,
 including trade secrets, belonging to Gaussian, Inc.
  
 This software is provided under written license and may be
 used, copied, transmitted, or stored only in accord with that
 written license.
  
 The following legend is applicable only to US Government
 contracts under FAR:
  
                    RESTRICTED RIGHTS LEGEND
  
 Use, reproduction and disclosure by the US Government is
 subject to restrictions as set forth in subparagraphs (a)
 and (c) of the Commercial Computer Software - Restricted
 Rights clause in FAR 52.227-19.
  
 Gaussian, Inc.
 340 Quinnipiac St., Bldg. 40, Wallingford CT 06492
  
  
 ---------------------------------------------------------------
 Warning -- This program may not be used in any manner that
 competes with the business of Gaussian, Inc. or will provide
 assistance to any competitor of Gaussian, Inc.  The licensee
 of this program is prohibited from giving any competitor of
 Gaussian, Inc. access to this program.  By using this program,
 the user acknowledges that Gaussian, Inc. is engaged in the
 business of creating and licensing software in the field of
 computational chemistry and represents and warrants to the
 licensee that it is not a competitor of Gaussian, Inc. and that
 it will not use this program in any manner prohibited above.
 ---------------------------------------------------------------
  

 Cite this work as:
 Gaussian 09, Revision D.01,
 M. J. Frisch, G. W. Trucks, H. B. Schlegel, G. E. Scuseria, 
 M. A. Robb, J. R. Cheeseman, G. Scalmani, V. Barone, B. Mennucci, 
 G. A. Petersson, H. Nakatsuji, M. Caricato, X. Li, H. P. Hratchian, 
 A. F. Izmaylov, J. Bloino, G. Zheng, J. L. Sonnenberg, M. Hada, 
 M. Ehara, K. Toyota, R. Fukuda, J. Hasegawa, M. Ishida, T. Nakajima, 
 Y. Honda, O. Kitao, H. Nakai, T. Vreven, J. A. Montgomery, Jr., 
 J. E. Peralta, F. Ogliaro, M. Bearpark, J. J. Heyd, E. Brothers, 
 K. N. Kudin, V. N. Staroverov, T. Keith, R. Kobayashi, J. Normand, 
 K. Raghavachari, A. Rendell, J. C. Burant, S. S. Iyengar, J. Tomasi, 
 M. Cossi, N. Rega, J. M. Millam, M. Klene, J. E. Knox, J. B. Cross, 
 V. Bakken, C. Adamo, J. Jaramillo, R. Gomperts, R. E. Stratmann, 
 O. Yazyev, A. J. Austin, R. Cammi, C. Pomelli, J. W. Ochterski, 
 R. L. Martin, K. Morokuma, V. G. Zakrzewski, G. A. Voth, 
 P. Salvador, J. J. Dannenberg, S. Dapprich, A. D. Daniels, 
 O. Farkas, J. B. Foresman, J. V. Ortiz, J. Cioslowski, 
 and D. J. Fox, Gaussian, Inc., Wallingford CT, 2013.
 
 ******************************************
 Gaussian 09:  ES64L-G09RevD.01 24-Apr-2013
                12-Mar-2020 
 ******************************************
 --------------
 #p M062X/6-31G
 --------------
 1/38=1/1;
 2/12=2,17=6,18=5,40=1/2;
 3/5=1,6=6,11=2,16=1,25=1,30=1,74=-55/1,2,3;
 4//1;
 5/5=2,38=5/2;
 6/7=2,8=2,9=2,10=2,28=1/1;
 99/5=1,9=1/99;
 Leave Link    1 at Thu Mar 12 19:32:53 2020, MaxMem=           0 cpu:         0.0
 (Enter /usr/local/gaussian09d01/g09/l101.exe)
 --------
 chk calc
 --------
 Symbolic Z-matrix:
 Charge =  1 Multiplicity = 1
 C                     3.82448  -1.1422    1.17225 
 H                     4.79911  -1.62961   1.17381 
 H                     3.05361  -1.91631   1.1608 
 H                    -2.6422   -3.23165  -0.73387 
 H                     3.75961  -0.53292   2.07825 
 H                     3.76532  -0.52154   0.27395 
 C                    -2.40154  -0.7055    0.49256 
 C                    -1.33366   0.19321   1.14127 
 C                     0.02197  -0.47034   0.95019 
 N                    -1.3033    1.52915   0.51595 
 O                     0.15593  -1.61146   0.51692 
 O                     1.02492   0.35339   1.29866 
 C                    -2.12189  -0.91834  -0.96711 
 H                    -3.3923   -0.2474    0.5965 
 H                    -2.41918  -1.6699    1.00444 
 H                    -1.5263    0.23947   2.22139 
 H                    -1.5039    0.96075  -1.1704 
 H                    -0.41056   1.99753   0.66615 
 H                     1.9244   -0.03993   1.23082 
 N                    -1.70046   0.06924  -1.69492 
 O                    -2.33685  -2.07165  -1.57518 
 H                    -2.0719    2.12856   0.80783 
 H                    -1.51441  -0.05451  -2.68524 
 
 NAtoms=     23 NQM=       23 NQMF=       0 NMMI=      0 NMMIF=      0
                NMic=       0 NMicF=      0.
                    Isotopes and Nuclear Properties:
 (Nuclear quadrupole moments (NQMom) in fm**2, nuclear magnetic moments (NMagM)
  in nuclear magnetons)

  Atom         1           2           3           4           5           6           7           8           9          10
 IAtWgt=          12           1           1           1           1           1          12          12          12          14
 AtmWgt=  12.0000000   1.0078250   1.0078250   1.0078250   1.0078250   1.0078250  12.0000000  12.0000000  12.0000000  14.0030740
 NucSpn=           0           1           1           1           1           1           0           0           0           2
 AtZEff=   0.0000000   0.0000000   0.0000000   0.0000000   0.0000000   0.0000000   0.0000000   0.0000000   0.0000000   0.0000000
 NQMom=    0.0000000   0.0000000   0.0000000   0.0000000   0.0000000   0.0000000   0.0000000   0.0000000   0.0000000   2.0440000
 NMagM=    0.0000000   2.7928460   2.7928460   2.7928460   2.7928460   2.7928460   0.0000000   0.0000000   0.0000000   0.4037610
 AtZNuc=   6.0000000   1.0000000   1.0000000   1.0000000   1.0000000   1.0000000   6.0000000   6.0000000   6.0000000   7.0000000

  Atom        11          12          13          14          15          16          17          18          19          20
 IAtWgt=          16          16          12           1           1           1           1           1           1          14
 AtmWgt=  15.9949146  15.9949146  12.0000000   1.0078250   1.0078250   1.0078250   1.0078250   1.0078250   1.0078250  14.0030740
 NucSpn=           0           0           0           1           1           1           1           1           1           2
 AtZEff=   0.0000000   0.0000000   0.0000000   0.0000000   0.0000000   0.0000000   0.0000000   0.0000000   0.0000000   0.0000000
 NQMom=    0.0000000   0.0000000   0.0000000   0.0000000   0.0000000   0.0000000   0.0000000   0.0000000   0.0000000   2.0440000
 NMagM=    0.0000000   0.0000000   0.0000000   2.7928460   2.7928460   2.7928460   2.7928460   2.7928460   2.7928460   0.4037610
 AtZNuc=   8.0000000   8.0000000   6.0000000   1.0000000   1.0000000   1.0000000   1.0000000   1.0000000   1.0000000   7.0000000

  Atom        21          22          23
 IAtWgt=          16           1           1
 AtmWgt=  15.9949146   1.0078250   1.0078250
 NucSpn=           0           1           1
 AtZEff=   0.0000000   0.0000000   0.0000000
 NQMom=    0.0000000   0.0000000   0.0000000
 NMagM=    0.0000000   2.7928460   2.7928460
 AtZNuc=   8.0000000   1.0000000   1.0000000
 Leave Link  101 at Thu Mar 12 19:32:53 2020, MaxMem=    33554432 cpu:         0.0
 (Enter /usr/local/gaussian09d01/g09/l202.exe)
                          Input orientation:                          
 ---------------------------------------------------------------------
 Center     Atomic      Atomic             Coordinates (Angstroms)
 Number     Number       Type             X           Y           Z
 ---------------------------------------------------------------------
      1          6           0        3.824483   -1.142195    1.172254
      2          1           0        4.799113   -1.629614    1.173809
      3          1           0        3.053614   -1.916313    1.160805
      4          1           0       -2.642197   -3.231646   -0.733866
      5          1           0        3.759606   -0.532918    2.078246
      6          1           0        3.765324   -0.521541    0.273951
      7          6           0       -2.401542   -0.705499    0.492563
      8          6           0       -1.333656    0.193207    1.141271
      9          6           0        0.021967   -0.470338    0.950187
     10          7           0       -1.303305    1.529149    0.515945
     11          8           0        0.155929   -1.611463    0.516920
     12          8           0        1.024922    0.353393    1.298656
     13          6           0       -2.121889   -0.918337   -0.967113
     14          1           0       -3.392299   -0.247402    0.596497
     15          1           0       -2.419177   -1.669900    1.004436
     16          1           0       -1.526304    0.239474    2.221388
     17          1           0       -1.503902    0.960751   -1.170400
     18          1           0       -0.410560    1.997532    0.666151
     19          1           0        1.924402   -0.039926    1.230819
     20          7           0       -1.700457    0.069239   -1.694920
     21          8           0       -2.336855   -2.071648   -1.575178
     22          1           0       -2.071901    2.128557    0.807834
     23          1           0       -1.514409   -0.054511   -2.685236
 ---------------------------------------------------------------------
                    Distance matrix (angstroms):
                    1          2          3          4          5
     1  C    0.000000
     2  H    1.089717   0.000000
     3  H    1.092532   1.768935   0.000000
     4  H    7.058119   7.847218   6.145091   0.000000
     5  H    1.093732   1.761058   1.803858   7.494945   0.000000
     6  H    1.093462   1.762467   1.799563   7.029700   1.804340
     7  C    6.278222   7.291606   5.627730   2.818415   6.364270
     8  C    5.328288   6.398015   4.868120   4.118014   5.229388
     9  C    3.867794   4.920879   3.365425   4.190302   3.904662
    10  N    5.819023   6.902903   5.591940   5.100964   5.685594
    11  O    3.756056   4.689455   2.983974   3.466839   4.072774
    12  O    3.176523   4.265257   3.047319   5.516468   2.978557
    13  C    6.323476   7.279405   5.684173   2.382545   6.634362
    14  H    7.294799   8.327247   6.682328   3.352347   7.309368
    15  H    6.268167   7.220389   5.480567   2.347442   6.373630
    16  H    5.624999   6.678459   5.171838   4.693338   5.343962
    17  H    6.188869   7.206477   5.872220   4.366059   6.363118
    18  H    5.296189   6.368250   5.250083   5.855302   5.078138
    19  H    2.197438   3.285472   2.191084   5.907698   2.080661
    20  N    6.341389   7.304801   5.890567   3.564596   6.664208
    21  O    6.809871   7.659919   6.047056   1.465140   7.272004
    22  H    6.752626   7.840192   6.538842   5.606590   6.534820
    23  H    6.675855   7.565298   6.255011   3.895374   7.122841
                    6          7          8          9         10
     6  H    0.000000
     7  C    6.173481   0.000000
     8  C    5.221370   1.539115   0.000000
     9  C    3.804292   2.477522   1.521354   0.000000
    10  N    5.473106   2.490045   1.475362   2.437797   0.000000
    11  O    3.778186   2.713305   2.421882   1.227938   3.463063
    12  O    3.053740   3.675826   2.369245   1.343831   2.723175
    13  C    6.029674   1.501385   2.510403   2.910818   2.976530
    14  H    7.170129   1.096474   2.174610   3.439769   2.743450
    15  H    6.332486   1.091969   2.160613   2.720492   3.423114
    16  H    5.689726   2.155888   1.098138   2.125307   2.149773
    17  H    5.661103   2.519443   2.441706   2.978788   1.790831
    18  H    4.892602   3.361625   2.081690   2.521535   1.019283
    19  H    2.129916   4.438671   3.267616   1.970601   3.659389
    20  N    5.839541   2.424215   2.862497   3.202261   2.678990
    21  O    6.561912   2.479133   3.676285   3.808636   4.290310
    22  H    6.432825   2.870528   2.098038   3.340478   1.017462
    23  H    6.070459   3.362914   3.838774   3.968584   3.577723
                   11         12         13         14         15
    11  O    0.000000
    12  O    2.286245   0.000000
    13  C    2.805572   4.080861   0.000000
    14  H    3.802225   4.512852   2.123434   0.000000
    15  H    2.621499   4.005259   2.130782   1.771124   0.000000
    16  H    3.026729   2.715358   3.444094   2.521757   2.433907
    17  H    3.495479   3.586095   1.988519   2.854401   3.533832
    18  H    3.656231   2.272415   3.754796   3.733008   4.195121
    19  H    2.471210   0.984055   4.687748   5.358426   4.644862
    20  N    3.341132   4.058317   1.297157   2.865865   3.290545
    21  O    3.286734   5.043936   1.321393   3.026220   2.612009
    22  H    4.362981   3.603113   3.526542   2.726407   3.819362
    23  H    3.932929   4.741938   2.016724   3.785954   4.128168
                   16         17         18         19         20
    16  H    0.000000
    17  H    3.467704   0.000000
    18  H    2.598926   2.375549   0.000000
    19  H    3.600926   4.303542   3.149942   0.000000
    20  N    3.923872   1.052876   3.310106   4.659557   0.000000
    21  O    4.517986   3.170662   5.029155   5.491796   2.236680
    22  H    2.421661   2.366391   1.672511   4.566362   3.262290
    23  H    4.915437   1.823621   4.081808   5.211632   1.015211
                   21         22         23
    21  O    0.000000
    22  H    4.836390   0.000000
    23  H    2.444890   4.156696   0.000000
 Stoichiometry    C5H13N2O3(1+)
 Framework group  C1[X(C5H13N2O3)]
 Deg. of freedom    63
 Full point group                 C1      NOp   1
 Largest Abelian subgroup         C1      NOp   1
 Largest concise Abelian subgroup C1      NOp   1
                         Standard orientation:                         
 ---------------------------------------------------------------------
 Center     Atomic      Atomic             Coordinates (Angstroms)
 Number     Number       Type             X           Y           Z
 ---------------------------------------------------------------------
      1          6           0       -4.368203   -0.942396    0.329214
      2          1           0       -5.271640   -1.545640    0.415128
      3          1           0       -3.651007   -1.484860   -0.291261
      4          1           0        2.337017   -2.448910   -1.279353
      5          1           0       -4.649922    0.008657   -0.131637
      6          1           0       -3.973255   -0.790894    1.337540
      7          6           0        1.653345    0.267952   -0.971588
      8          6           0        0.420438    1.150976   -0.708749
      9          6           0       -0.763107    0.237941   -0.425719
     10          7           0        0.630098    2.034591    0.453989
     11          8           0       -0.724582   -0.979380   -0.582170
     12          8           0       -1.822501    0.932621    0.022595
     13          6           0        1.945908   -0.623270    0.200712
     14          1           0        2.531812    0.895732   -1.162489
     15          1           0        1.475186   -0.343607   -1.858521
     16          1           0        0.190607    1.710499   -1.625274
     17          1           0        1.452582    0.817956    1.478877
     18          1           0       -0.252701    2.349453    0.854571
     19          1           0       -2.630036    0.394321    0.185339
     20          7           0        1.831861   -0.161641    1.407571
     21          8           0        2.373531   -1.866103    0.064387
     22          1           0        1.231993    2.829861    0.252753
     23          1           0        2.033780   -0.747546    2.211685
 ---------------------------------------------------------------------
 Rotational constants (GHZ):      1.7904783      0.7165715      0.6055915
 Leave Link  202 at Thu Mar 12 19:32:53 2020, MaxMem=    33554432 cpu:         0.0
 (Enter /usr/local/gaussian09d01/g09/l301.exe)
 Standard basis: 6-31G (6D, 7F)
 Ernie: Thresh=  0.10000D-02 Tol=  0.10000D-05 Strict=F.
 There are   116 symmetry adapted cartesian basis functions of A   symmetry.
 There are   116 symmetry adapted basis functions of A   symmetry.
   116 basis functions,   272 primitive gaussians,   116 cartesian basis functions
    40 alpha electrons       40 beta electrons
       nuclear repulsion energy       584.3594844136 Hartrees.
 IExCor= 4336 DFT=T Ex+Corr=M062X ExCW=0 ScaHFX=  0.540000
 ScaDFX=  1.000000  1.000000  1.000000  1.000000 ScalE2=  1.000000  1.000000
 IRadAn=      0 IRanWt=     -1 IRanGd=            0 ICorTp=0 IEmpDi=  4
 NAtoms=   23 NActive=   23 NUniq=   23 SFac= 1.00D+00 NAtFMM=   60 NAOKFM=F Big=F
 Integral buffers will be    131072 words long.
 Raffenetti 2 integral format.
 Two-electron integral symmetry is turned on.
 Leave Link  301 at Thu Mar 12 19:32:53 2020, MaxMem=    33554432 cpu:         0.0
 (Enter /usr/local/gaussian09d01/g09/l302.exe)
 NPDir=0 NMtPBC=     1 NCelOv=     1 NCel=       1 NClECP=     1 NCelD=      1
         NCelK=      1 NCelE2=     1 NClLst=     1 CellRange=     0.0.
 One-electron integrals computed using PRISM.
 NBasis=   116 RedAO= T EigKep=  3.55D-03  NBF=   116
 NBsUse=   116 1.00D-06 EigRej= -1.00D+00 NBFU=   116
 Precomputing XC quadrature grid using
 IXCGrd= 4 IRadAn=           0 IRanWt=          -1 IRanGd=           0 AccXCQ= 0.00D+00.
 Generated NRdTot=       0 NPtTot=           0 NUsed=           0 NTot=          32
 NSgBfM=   115   115   115   115   115 MxSgAt=    23 MxSgA2=    23.
 Leave Link  302 at Thu Mar 12 19:32:53 2020, MaxMem=    33554432 cpu:         0.3
 (Enter /usr/local/gaussian09d01/g09/l303.exe)
 DipDrv:  MaxL=1.
 Leave Link  303 at Thu Mar 12 19:32:53 2020, MaxMem=    33554432 cpu:         0.0
 (Enter /usr/local/gaussian09d01/g09/l401.exe)
 ExpMin= 1.61D-01 ExpMax= 5.48D+03 ExpMxC= 8.25D+02 IAcc=1 IRadAn=         1 AccDes= 0.00D+00
 Harris functional with IExCor= 1009 and IRadAn=       1 diagonalized for initial guess.
 HarFok:  IExCor= 1009 AccDes= 0.00D+00 IRadAn=         1 IDoV= 1 UseB2=F ITyADJ=14
 ICtDFT=  3500011 ScaDFX=  1.000000  1.000000  1.000000  1.000000
 FoFCou: FMM=F IPFlag=           0 FMFlag=      100000 FMFlg1=           0
         NFxFlg=           0 DoJE=T BraDBF=F KetDBF=T FulRan=T
         wScrn=  0.000000 ICntrl=     500 IOpCl=  0 I1Cent=   200000004 NGrid=           0
         NMat0=    1 NMatS0=      1 NMatT0=    0 NMatD0=    1 NMtDS0=    0 NMtDT0=    0
 Petite list used in FoFCou.
 Harris En= -532.678571992883    
 JPrj=0 DoOrth=F DoCkMO=F.
 Leave Link  401 at Thu Mar 12 19:32:54 2020, MaxMem=    33554432 cpu:         0.9
 (Enter /usr/local/gaussian09d01/g09/l502.exe)
 Closed shell SCF:
 Using DIIS extrapolation, IDIIS=  1040.
 Integral symmetry usage will be decided dynamically.
 Keep R1 ints in memory in canonical form, NReq=24030401.
 IVT=       60528 IEndB=       60528 NGot=    33554432 MDV=    10465614
 LenX=    10465614 LenY=    10451717
 Requested convergence on RMS density matrix=1.00D-08 within 128 cycles.
 Requested convergence on MAX density matrix=1.00D-06.
 Requested convergence on             energy=1.00D-06.
 No special actions if energy rises.
 FoFCou: FMM=F IPFlag=           0 FMFlag=           0 FMFlg1=           0
         NFxFlg=           0 DoJE=F BraDBF=F KetDBF=F FulRan=T
         wScrn=  0.000000 ICntrl=     600 IOpCl=  0 I1Cent=           0 NGrid=           0
         NMat0=    1 NMatS0=   6786 NMatT0=    0 NMatD0=    1 NMtDS0=    0 NMtDT0=    0
 Symmetry not used in FoFCou.
 Integral accuracy reduced to 1.0D-05 until final iterations.

 Cycle   1  Pass 0  IDiag  1:
 E= -532.563145873394    
 DIIS: error= 4.40D-02 at cycle   1 NSaved=   1.
 NSaved= 1 IEnMin= 1 EnMin= -532.563145873394     IErMin= 1 ErrMin= 4.40D-02
 ErrMax= 4.40D-02  0.00D+00 EMaxC= 1.00D-01 BMatC= 3.16D-01 BMatP= 3.16D-01
 IDIUse=3 WtCom= 5.60D-01 WtEn= 4.40D-01
 Coeff-Com:  0.100D+01
 Coeff-En:   0.100D+01
 Coeff:      0.100D+01
 Gap=     0.166 Goal=   None    Shift=    0.000
 GapD=    0.166 DampG=1.000 DampE=0.500 DampFc=0.5000 IDamp=-1.
 Damping current iteration by 5.00D-01
 RMSDP=8.41D-03 MaxDP=1.64D-01              OVMax= 1.75D-01

 Cycle   2  Pass 0  IDiag  1:
 E= -532.691300402950     Delta-E=       -0.128154529556 Rises=F Damp=T
 DIIS: error= 1.07D-02 at cycle   2 NSaved=   2.
 NSaved= 2 IEnMin= 2 EnMin= -532.691300402950     IErMin= 2 ErrMin= 1.07D-02
 ErrMax= 1.07D-02  0.00D+00 EMaxC= 1.00D-01 BMatC= 2.01D-02 BMatP= 3.16D-01
 IDIUse=3 WtCom= 8.93D-01 WtEn= 1.07D-01
 Coeff-Com:  0.443D-01 0.956D+00
 Coeff-En:   0.495D-01 0.951D+00
 Coeff:      0.449D-01 0.955D+00
 Gap=     0.270 Goal=   None    Shift=    0.000
 RMSDP=2.17D-03 MaxDP=3.34D-02 DE=-1.28D-01 OVMax= 1.08D-01

 Cycle   3  Pass 0  IDiag  1:
 E= -532.826857879480     Delta-E=       -0.135557476530 Rises=F Damp=F
 DIIS: error= 1.12D-02 at cycle   3 NSaved=   3.
 NSaved= 3 IEnMin= 3 EnMin= -532.826857879480     IErMin= 2 ErrMin= 1.07D-02
 ErrMax= 1.12D-02  0.00D+00 EMaxC= 1.00D-01 BMatC= 1.57D-02 BMatP= 2.01D-02
 IDIUse=3 WtCom= 8.88D-01 WtEn= 1.12D-01
 Coeff-Com: -0.181D-01 0.469D+00 0.549D+00
 Coeff-En:   0.000D+00 0.000D+00 0.100D+01
 Coeff:     -0.161D-01 0.416D+00 0.600D+00
 Gap=     0.268 Goal=   None    Shift=    0.000
 RMSDP=1.41D-03 MaxDP=3.36D-02 DE=-1.36D-01 OVMax= 5.16D-02

 Cycle   4  Pass 0  IDiag  1:
 E= -532.837110145886     Delta-E=       -0.010252266406 Rises=F Damp=F
 DIIS: error= 7.11D-03 at cycle   4 NSaved=   4.
 NSaved= 4 IEnMin= 4 EnMin= -532.837110145886     IErMin= 4 ErrMin= 7.11D-03
 ErrMax= 7.11D-03  0.00D+00 EMaxC= 1.00D-01 BMatC= 3.70D-03 BMatP= 1.57D-02
 IDIUse=3 WtCom= 9.29D-01 WtEn= 7.11D-02
 Coeff-Com: -0.522D-02 0.298D-01 0.332D+00 0.644D+00
 Coeff-En:   0.000D+00 0.000D+00 0.189D+00 0.811D+00
 Coeff:     -0.485D-02 0.277D-01 0.322D+00 0.656D+00
 Gap=     0.264 Goal=   None    Shift=    0.000
 RMSDP=5.27D-04 MaxDP=1.04D-02 DE=-1.03D-02 OVMax= 1.66D-02

 Cycle   5  Pass 0  IDiag  1:
 E= -532.839816678172     Delta-E=       -0.002706532286 Rises=F Damp=F
 DIIS: error= 1.01D-03 at cycle   5 NSaved=   5.
 NSaved= 5 IEnMin= 5 EnMin= -532.839816678172     IErMin= 5 ErrMin= 1.01D-03
 ErrMax= 1.01D-03  0.00D+00 EMaxC= 1.00D-01 BMatC= 1.69D-04 BMatP= 3.70D-03
 IDIUse=3 WtCom= 9.90D-01 WtEn= 1.01D-02
 Coeff-Com: -0.487D-03-0.967D-02 0.140D+00 0.338D+00 0.532D+00
 Coeff-En:   0.000D+00 0.000D+00 0.000D+00 0.000D+00 0.100D+01
 Coeff:     -0.482D-03-0.957D-02 0.138D+00 0.334D+00 0.537D+00
 Gap=     0.262 Goal=   None    Shift=    0.000
 RMSDP=1.07D-04 MaxDP=2.03D-03 DE=-2.71D-03 OVMax= 3.49D-03

 Cycle   6  Pass 0  IDiag  1:
 E= -532.839965387726     Delta-E=       -0.000148709554 Rises=F Damp=F
 DIIS: error= 2.86D-04 at cycle   6 NSaved=   6.
 NSaved= 6 IEnMin= 6 EnMin= -532.839965387726     IErMin= 6 ErrMin= 2.86D-04
 ErrMax= 2.86D-04  0.00D+00 EMaxC= 1.00D-01 BMatC= 4.50D-06 BMatP= 1.69D-04
 IDIUse=3 WtCom= 9.97D-01 WtEn= 2.86D-03
 Coeff-Com:  0.800D-03-0.418D-02 0.919D-02 0.167D-01 0.116D+00 0.861D+00
 Coeff-En:   0.000D+00 0.000D+00 0.000D+00 0.000D+00 0.000D+00 0.100D+01
 Coeff:      0.798D-03-0.416D-02 0.916D-02 0.166D-01 0.116D+00 0.862D+00
 Gap=     0.262 Goal=   None    Shift=    0.000
 RMSDP=3.20D-05 MaxDP=4.45D-04 DE=-1.49D-04 OVMax= 6.03D-04

 Cycle   7  Pass 0  IDiag  1:
 E= -532.839970165686     Delta-E=       -0.000004777960 Rises=F Damp=F
 DIIS: error= 6.93D-05 at cycle   7 NSaved=   7.
 NSaved= 7 IEnMin= 7 EnMin= -532.839970165686     IErMin= 7 ErrMin= 6.93D-05
 ErrMax= 6.93D-05  0.00D+00 EMaxC= 1.00D-01 BMatC= 6.83D-07 BMatP= 4.50D-06
 IDIUse=1 WtCom= 1.00D+00 WtEn= 0.00D+00
 Coeff-Com:  0.474D-03-0.737D-03-0.136D-01-0.377D-01-0.195D-01 0.328D+00
 Coeff-Com:  0.743D+00
 Coeff:      0.474D-03-0.737D-03-0.136D-01-0.377D-01-0.195D-01 0.328D+00
 Coeff:      0.743D+00
 Gap=     0.262 Goal=   None    Shift=    0.000
 RMSDP=1.23D-05 MaxDP=2.45D-04 DE=-4.78D-06 OVMax= 3.34D-04

 Cycle   8  Pass 0  IDiag  1:
 E= -532.839970962471     Delta-E=       -0.000000796784 Rises=F Damp=F
 DIIS: error= 3.54D-05 at cycle   8 NSaved=   8.
 NSaved= 8 IEnMin= 8 EnMin= -532.839970962471     IErMin= 8 ErrMin= 3.54D-05
 ErrMax= 3.54D-05  0.00D+00 EMaxC= 1.00D-01 BMatC= 1.38D-07 BMatP= 6.83D-07
 IDIUse=1 WtCom= 1.00D+00 WtEn= 0.00D+00
 Coeff-Com:  0.155D-03 0.142D-03-0.767D-02-0.210D-01-0.236D-01 0.581D-01
 Coeff-Com:  0.371D+00 0.623D+00
 Coeff:      0.155D-03 0.142D-03-0.767D-02-0.210D-01-0.236D-01 0.581D-01
 Coeff:      0.371D+00 0.623D+00
 Gap=     0.262 Goal=   None    Shift=    0.000
 RMSDP=4.66D-06 MaxDP=1.07D-04 DE=-7.97D-07 OVMax= 1.16D-04

 Initial convergence to 1.0D-05 achieved.  Increase integral accuracy.
 Cycle   9  Pass 1  IDiag  1:
 E= -532.840170893195     Delta-E=       -0.000199930725 Rises=F Damp=F
 DIIS: error= 1.18D-04 at cycle   1 NSaved=   1.
 NSaved= 1 IEnMin= 1 EnMin= -532.840170893195     IErMin= 1 ErrMin= 1.18D-04
 ErrMax= 1.18D-04  0.00D+00 EMaxC= 1.00D-01 BMatC= 1.75D-06 BMatP= 1.75D-06
 IDIUse=3 WtCom= 9.99D-01 WtEn= 1.18D-03
 Coeff-Com:  0.100D+01
 Coeff-En:   0.100D+01
 Coeff:      0.100D+01
 Gap=     0.262 Goal=   None    Shift=    0.000
 RMSDP=4.66D-06 MaxDP=1.07D-04 DE=-2.00D-04 OVMax= 1.95D-04

 Cycle  10  Pass 1  IDiag  1:
 E= -532.840172527305     Delta-E=       -0.000001634110 Rises=F Damp=F
 DIIS: error= 5.74D-05 at cycle   2 NSaved=   2.
 NSaved= 2 IEnMin= 2 EnMin= -532.840172527305     IErMin= 2 ErrMin= 5.74D-05
 ErrMax= 5.74D-05  0.00D+00 EMaxC= 1.00D-01 BMatC= 3.38D-07 BMatP= 1.75D-06
 IDIUse=1 WtCom= 1.00D+00 WtEn= 0.00D+00
 Coeff-Com:  0.232D+00 0.768D+00
 Coeff:      0.232D+00 0.768D+00
 Gap=     0.262 Goal=   None    Shift=    0.000
 RMSDP=7.26D-06 MaxDP=1.29D-04 DE=-1.63D-06 OVMax= 1.51D-04

 Cycle  11  Pass 1  IDiag  1:
 E= -532.840172791278     Delta-E=       -0.000000263972 Rises=F Damp=F
 DIIS: error= 2.46D-05 at cycle   3 NSaved=   3.
 NSaved= 3 IEnMin= 3 EnMin= -532.840172791278     IErMin= 3 ErrMin= 2.46D-05
 ErrMax= 2.46D-05  0.00D+00 EMaxC= 1.00D-01 BMatC= 1.14D-07 BMatP= 3.38D-07
 IDIUse=1 WtCom= 1.00D+00 WtEn= 0.00D+00
 Coeff-Com: -0.390D-01 0.346D+00 0.693D+00
 Coeff:     -0.390D-01 0.346D+00 0.693D+00
 Gap=     0.262 Goal=   None    Shift=    0.000
 RMSDP=3.59D-06 MaxDP=8.42D-05 DE=-2.64D-07 OVMax= 6.12D-05

 Cycle  12  Pass 1  IDiag  1:
 E= -532.840172882207     Delta-E=       -0.000000090929 Rises=F Damp=F
 DIIS: error= 9.92D-06 at cycle   4 NSaved=   4.
 NSaved= 4 IEnMin= 4 EnMin= -532.840172882207     IErMin= 4 ErrMin= 9.92D-06
 ErrMax= 9.92D-06  0.00D+00 EMaxC= 1.00D-01 BMatC= 1.52D-08 BMatP= 1.14D-07
 IDIUse=1 WtCom= 1.00D+00 WtEn= 0.00D+00
 Coeff-Com: -0.339D-01 0.162D+00 0.398D+00 0.474D+00
 Coeff:     -0.339D-01 0.162D+00 0.398D+00 0.474D+00
 Gap=     0.262 Goal=   None    Shift=    0.000
 RMSDP=9.74D-07 MaxDP=2.56D-05 DE=-9.09D-08 OVMax= 3.30D-05

 Cycle  13  Pass 1  IDiag  1:
 E= -532.840172894450     Delta-E=       -0.000000012243 Rises=F Damp=F
 DIIS: error= 2.79D-06 at cycle   5 NSaved=   5.
 NSaved= 5 IEnMin= 5 EnMin= -532.840172894450     IErMin= 5 ErrMin= 2.79D-06
 ErrMax= 2.79D-06  0.00D+00 EMaxC= 1.00D-01 BMatC= 4.14D-10 BMatP= 1.52D-08
 IDIUse=1 WtCom= 1.00D+00 WtEn= 0.00D+00
 Coeff-Com: -0.506D-02 0.302D-02 0.231D-01 0.128D+00 0.851D+00
 Coeff:     -0.506D-02 0.302D-02 0.231D-01 0.128D+00 0.851D+00
 Gap=     0.262 Goal=   None    Shift=    0.000
 RMSDP=3.17D-07 MaxDP=5.61D-06 DE=-1.22D-08 OVMax= 6.87D-06

 Cycle  14  Pass 1  IDiag  1:
 E= -532.840172894847     Delta-E=       -0.000000000397 Rises=F Damp=F
 DIIS: error= 1.14D-06 at cycle   6 NSaved=   6.
 NSaved= 6 IEnMin= 6 EnMin= -532.840172894847     IErMin= 6 ErrMin= 1.14D-06
 ErrMax= 1.14D-06  0.00D+00 EMaxC= 1.00D-01 BMatC= 1.64D-10 BMatP= 4.14D-10
 IDIUse=1 WtCom= 1.00D+00 WtEn= 0.00D+00
 Coeff-Com:  0.233D-02-0.212D-01-0.449D-01 0.594D-02 0.466D+00 0.592D+00
 Coeff:      0.233D-02-0.212D-01-0.449D-01 0.594D-02 0.466D+00 0.592D+00
 Gap=     0.262 Goal=   None    Shift=    0.000
 RMSDP=1.10D-07 MaxDP=2.89D-06 DE=-3.97D-10 OVMax= 3.72D-06

 Cycle  15  Pass 1  IDiag  1:
 E= -532.840172894995     Delta-E=       -0.000000000148 Rises=F Damp=F
 DIIS: error= 2.70D-07 at cycle   7 NSaved=   7.
 NSaved= 7 IEnMin= 7 EnMin= -532.840172894995     IErMin= 7 ErrMin= 2.70D-07
 ErrMax= 2.70D-07  0.00D+00 EMaxC= 1.00D-01 BMatC= 4.37D-12 BMatP= 1.64D-10
 IDIUse=1 WtCom= 1.00D+00 WtEn= 0.00D+00
 Coeff-Com:  0.710D-03-0.314D-02-0.883D-02-0.580D-02-0.129D-01 0.915D-01
 Coeff-Com:  0.938D+00
 Coeff:      0.710D-03-0.314D-02-0.883D-02-0.580D-02-0.129D-01 0.915D-01
 Coeff:      0.938D+00
 Gap=     0.262 Goal=   None    Shift=    0.000
 RMSDP=4.83D-08 MaxDP=7.66D-07 DE=-1.48D-10 OVMax= 1.44D-06

 Cycle  16  Pass 1  IDiag  1:
 E= -532.840172895001     Delta-E=       -0.000000000006 Rises=F Damp=F
 DIIS: error= 1.75D-07 at cycle   8 NSaved=   8.
 NSaved= 8 IEnMin= 8 EnMin= -532.840172895001     IErMin= 8 ErrMin= 1.75D-07
 ErrMax= 1.75D-07  0.00D+00 EMaxC= 1.00D-01 BMatC= 2.72D-12 BMatP= 4.37D-12
 IDIUse=1 WtCom= 1.00D+00 WtEn= 0.00D+00
 Coeff-Com:  0.132D-03 0.686D-03 0.783D-04-0.377D-02-0.663D-01-0.160D-01
 Coeff-Com:  0.577D+00 0.508D+00
 Coeff:      0.132D-03 0.686D-03 0.783D-04-0.377D-02-0.663D-01-0.160D-01
 Coeff:      0.577D+00 0.508D+00
 Gap=     0.262 Goal=   None    Shift=    0.000
 RMSDP=1.38D-08 MaxDP=3.85D-07 DE=-6.14D-12 OVMax= 6.32D-07

 Cycle  17  Pass 1  IDiag  1:
 E= -532.840172895002     Delta-E=        0.000000000000 Rises=F Damp=F
 DIIS: error= 3.22D-08 at cycle   9 NSaved=   9.
 NSaved= 9 IEnMin= 9 EnMin= -532.840172895002     IErMin= 9 ErrMin= 3.22D-08
 ErrMax= 3.22D-08  0.00D+00 EMaxC= 1.00D-01 BMatC= 9.22D-14 BMatP= 2.72D-12
 IDIUse=1 WtCom= 1.00D+00 WtEn= 0.00D+00
 Coeff-Com: -0.764D-04 0.668D-03 0.144D-02 0.213D-03-0.133D-01-0.178D-01
 Coeff-Com: -0.266D-01 0.123D+00 0.933D+00
 Coeff:     -0.764D-04 0.668D-03 0.144D-02 0.213D-03-0.133D-01-0.178D-01
 Coeff:     -0.266D-01 0.123D+00 0.933D+00
 Gap=     0.262 Goal=   None    Shift=    0.000
 RMSDP=5.79D-09 MaxDP=9.99D-08 DE=-4.55D-13 OVMax= 2.01D-07

 SCF Done:  E(RM062X) =  -532.840172895     A.U. after   17 cycles
            NFock= 17  Conv=0.58D-08     -V/T= 2.0061
 KE= 5.295911296852D+02 PE=-2.400957592529D+03 EE= 7.541668055347D+02
 Leave Link  502 at Thu Mar 12 19:33:49 2020, MaxMem=    33554432 cpu:        55.3
 (Enter /usr/local/gaussian09d01/g09/l601.exe)
 Copying SCF densities to generalized density rwf, IOpCl= 0 IROHF=0.

 **********************************************************************

            Population analysis using the SCF density.

 **********************************************************************

 Orbital symmetries:
       Occupied  (A) (A) (A) (A) (A) (A) (A) (A) (A) (A) (A) (A)
                 (A) (A) (A) (A) (A) (A) (A) (A) (A) (A) (A) (A)
                 (A) (A) (A) (A) (A) (A) (A) (A) (A) (A) (A) (A)
                 (A) (A) (A) (A)
       Virtual   (A) (A) (A) (A) (A) (A) (A) (A) (A) (A) (A) (A)
                 (A) (A) (A) (A) (A) (A) (A) (A) (A) (A) (A) (A)
                 (A) (A) (A) (A) (A) (A) (A) (A) (A) (A) (A) (A)
                 (A) (A) (A) (A) (A) (A) (A) (A) (A) (A) (A) (A)
                 (A) (A) (A) (A) (A) (A) (A) (A) (A) (A) (A) (A)
                 (A) (A) (A) (A) (A) (A) (A) (A) (A) (A) (A) (A)
                 (A) (A) (A) (A)
 The electronic state is 1-A.
 Alpha  occ. eigenvalues --  -19.89433 -19.83818 -19.80261 -14.97884 -14.92609
 Alpha  occ. eigenvalues --  -10.88374 -10.85907 -10.77572 -10.74998 -10.62988
 Alpha  occ. eigenvalues --   -1.40056  -1.38764  -1.30983  -1.23591  -1.17982
 Alpha  occ. eigenvalues --   -1.05824  -0.96266  -0.90025  -0.88411  -0.85030
 Alpha  occ. eigenvalues --   -0.82673  -0.78304  -0.74771  -0.73600  -0.72964
 Alpha  occ. eigenvalues --   -0.71773  -0.70353  -0.68602  -0.65812  -0.63973
 Alpha  occ. eigenvalues --   -0.63241  -0.60495  -0.59401  -0.56995  -0.56783
 Alpha  occ. eigenvalues --   -0.55837  -0.55081  -0.53845  -0.51306  -0.48948
 Alpha virt. eigenvalues --   -0.22756  -0.15065  -0.11971  -0.03304  -0.00820
 Alpha virt. eigenvalues --   -0.00313   0.01280   0.02075   0.04293   0.05364
 Alpha virt. eigenvalues --    0.07006   0.07674   0.08186   0.10111   0.11190
 Alpha virt. eigenvalues --    0.11357   0.12530   0.13339   0.16076   0.18732
 Alpha virt. eigenvalues --    0.20300   0.24715   0.28478   0.39230   0.42038
 Alpha virt. eigenvalues --    0.43776   0.46413   0.46979   0.48313   0.48539
 Alpha virt. eigenvalues --    0.50064   0.52263   0.52344   0.54668   0.58632
 Alpha virt. eigenvalues --    0.58776   0.58943   0.61040   0.63830   0.64801
 Alpha virt. eigenvalues --    0.67927   0.70307   0.71577   0.75523   0.77471
 Alpha virt. eigenvalues --    0.78529   0.79538   0.81392   0.83587   0.84480
 Alpha virt. eigenvalues --    0.86658   0.87351   0.88152   0.88341   0.89157
 Alpha virt. eigenvalues --    0.92217   0.92629   0.94721   0.95408   0.96993
 Alpha virt. eigenvalues --    1.02680   1.04197   1.09446   1.11142   1.11662
 Alpha virt. eigenvalues --    1.14067   1.19490   1.25862   1.30392   1.33172
 Alpha virt. eigenvalues --    1.41948   1.52529   1.64036   1.74733   1.76604
 Alpha virt. eigenvalues --    1.85770
          Condensed to atoms (all electrons):
               1          2          3          4          5          6
     1  C    5.189047   0.375419   0.371634   0.000000   0.370241   0.371011
     2  H    0.375419   0.469877  -0.018002   0.000000  -0.019872  -0.020271
     3  H    0.371634  -0.018002   0.521492   0.000000  -0.029569  -0.030080
     4  H    0.000000   0.000000   0.000000   0.354121   0.000000   0.000000
     5  H    0.370241  -0.019872  -0.029569   0.000000   0.538255  -0.032176
     6  H    0.371011  -0.020271  -0.030080   0.000000  -0.032176   0.544505
     7  C    0.000000   0.000000  -0.000001  -0.009413   0.000000   0.000000
     8  C   -0.000005   0.000001   0.000084   0.000405  -0.000011  -0.000007
     9  C    0.000260   0.000037   0.001493   0.000016  -0.000152  -0.000130
    10  N    0.000000   0.000000  -0.000001   0.000010   0.000000   0.000000
    11  O   -0.001321   0.000015   0.003314   0.000211   0.000043   0.000016
    12  O   -0.005220   0.000175  -0.001628   0.000000  -0.000760  -0.000630
    13  C    0.000000   0.000000   0.000000  -0.003826   0.000000   0.000000
    14  H    0.000000   0.000000   0.000000   0.000287   0.000000   0.000000
    15  H    0.000000   0.000000   0.000000   0.005584   0.000000   0.000000
    16  H    0.000001   0.000000  -0.000002  -0.000003   0.000000   0.000000
    17  H    0.000000   0.000000   0.000000  -0.000032   0.000000   0.000000
    18  H   -0.000001   0.000000   0.000000   0.000000   0.000000   0.000000
    19  H    0.026833  -0.000933   0.002072   0.000000   0.005160   0.004685
    20  N    0.000000   0.000000   0.000000   0.003919   0.000000   0.000000
    21  O    0.000000   0.000000   0.000000   0.183439   0.000000   0.000000
    22  H    0.000000   0.000000   0.000000   0.000000   0.000000   0.000000
    23  H    0.000000   0.000000   0.000000  -0.000055   0.000000   0.000000
               7          8          9         10         11         12
     1  C    0.000000  -0.000005   0.000260   0.000000  -0.001321  -0.005220
     2  H    0.000000   0.000001   0.000037   0.000000   0.000015   0.000175
     3  H   -0.000001   0.000084   0.001493  -0.000001   0.003314  -0.001628
     4  H   -0.009413   0.000405   0.000016   0.000010   0.000211   0.000000
     5  H    0.000000  -0.000011  -0.000152   0.000000   0.000043  -0.000760
     6  H    0.000000  -0.000007  -0.000130   0.000000   0.000016  -0.000630
     7  C    5.415389   0.215852  -0.048142  -0.071830   0.008052   0.005376
     8  C    0.215852   5.571551   0.152383   0.193492  -0.124284  -0.148213
     9  C   -0.048142   0.152383   4.754576  -0.049512   0.496250   0.194338
    10  N   -0.071830   0.193492  -0.049512   7.094004   0.002193   0.001789
    11  O    0.008052  -0.124284   0.496250   0.002193   8.124226  -0.108667
    12  O    0.005376  -0.148213   0.194338   0.001789  -0.108667   8.419132
    13  C    0.258427  -0.017694  -0.007835  -0.007060   0.010692  -0.000543
    14  H    0.376227  -0.027729   0.005639  -0.001490   0.000412  -0.000027
    15  H    0.368363  -0.027779  -0.002179   0.003912   0.004715   0.000130
    16  H   -0.043582   0.385400  -0.027277  -0.036061   0.001099   0.000932
    17  H   -0.010151  -0.011192  -0.000575   0.094373   0.000202  -0.000074
    18  H    0.004832  -0.034229  -0.007504   0.320775   0.000223   0.013170
    19  H   -0.000159   0.005455  -0.018703  -0.000118  -0.000615   0.236991
    20  N   -0.093402   0.005253   0.000445  -0.075746  -0.003379   0.000058
    21  O   -0.056032   0.002595  -0.000598  -0.000158  -0.001626  -0.000001
    22  H   -0.000948  -0.029172   0.004152   0.322187  -0.000080  -0.000003
    23  H    0.003962  -0.000240  -0.000100   0.001502   0.000027   0.000003
              13         14         15         16         17         18
     1  C    0.000000   0.000000   0.000000   0.000001   0.000000  -0.000001
     2  H    0.000000   0.000000   0.000000   0.000000   0.000000   0.000000
     3  H    0.000000   0.000000   0.000000  -0.000002   0.000000   0.000000
     4  H   -0.003826   0.000287   0.005584  -0.000003  -0.000032   0.000000
     5  H    0.000000   0.000000   0.000000   0.000000   0.000000   0.000000
     6  H    0.000000   0.000000   0.000000   0.000000   0.000000   0.000000
     7  C    0.258427   0.376227   0.368363  -0.043582  -0.010151   0.004832
     8  C   -0.017694  -0.027729  -0.027779   0.385400  -0.011192  -0.034229
     9  C   -0.007835   0.005639  -0.002179  -0.027277  -0.000575  -0.007504
    10  N   -0.007060  -0.001490   0.003912  -0.036061   0.094373   0.320775
    11  O    0.010692   0.000412   0.004715   0.001099   0.000202   0.000223
    12  O   -0.000543  -0.000027   0.000130   0.000932  -0.000074   0.013170
    13  C    4.624644  -0.035217  -0.033729   0.004077  -0.016876   0.000181
    14  H   -0.035217   0.446246  -0.016950  -0.003265  -0.000279  -0.000053
    15  H   -0.033729  -0.016950   0.482971  -0.000691   0.000395  -0.000107
    16  H    0.004077  -0.003265  -0.000691   0.464575   0.000987   0.000982
    17  H   -0.016876  -0.000279   0.000395   0.000987   0.255168  -0.000505
    18  H    0.000181  -0.000053  -0.000107   0.000982  -0.000505   0.338563
    19  H   -0.000009   0.000002  -0.000002  -0.000251  -0.000020  -0.000262
    20  N    0.328217  -0.001523   0.004398  -0.000315   0.234834   0.000315
    21  O    0.303513   0.001067  -0.003467  -0.000069   0.001309   0.000002
    22  H   -0.000216   0.001627  -0.000075  -0.003836  -0.001547  -0.020933
    23  H   -0.019843  -0.000135  -0.000070   0.000011  -0.002503  -0.000013
              19         20         21         22         23
     1  C    0.026833   0.000000   0.000000   0.000000   0.000000
     2  H   -0.000933   0.000000   0.000000   0.000000   0.000000
     3  H    0.002072   0.000000   0.000000   0.000000   0.000000
     4  H    0.000000   0.003919   0.183439   0.000000  -0.000055
     5  H    0.005160   0.000000   0.000000   0.000000   0.000000
     6  H    0.004685   0.000000   0.000000   0.000000   0.000000
     7  C   -0.000159  -0.093402  -0.056032  -0.000948   0.003962
     8  C    0.005455   0.005253   0.002595  -0.029172  -0.000240
     9  C   -0.018703   0.000445  -0.000598   0.004152  -0.000100
    10  N   -0.000118  -0.075746  -0.000158   0.322187   0.001502
    11  O   -0.000615  -0.003379  -0.001626  -0.000080   0.000027
    12  O    0.236991   0.000058  -0.000001  -0.000003   0.000003
    13  C   -0.000009   0.328217   0.303513  -0.000216  -0.019843
    14  H    0.000002  -0.001523   0.001067   0.001627  -0.000135
    15  H   -0.000002   0.004398  -0.003467  -0.000075  -0.000070
    16  H   -0.000251  -0.000315  -0.000069  -0.003836   0.000011
    17  H   -0.000020   0.234834   0.001309  -0.001547  -0.002503
    18  H   -0.000262   0.000315   0.000002  -0.020933  -0.000013
    19  H    0.275661   0.000011   0.000000   0.000017  -0.000001
    20  N    0.000011   7.102755  -0.114796   0.000940   0.306260
    21  O    0.000000  -0.114796   8.204382   0.000002  -0.000634
    22  H    0.000017   0.000940   0.000002   0.370898  -0.000021
    23  H   -0.000001   0.306260  -0.000634  -0.000021   0.297226
 Mulliken charges:
               1
     1  C   -0.697900
     2  H    0.213554
     3  H    0.179195
     4  H    0.465336
     5  H    0.168841
     6  H    0.163076
     7  C   -0.322822
     8  C   -0.111915
     9  C    0.553121
    10  N   -0.792262
    11  O   -0.411720
    12  O   -0.606327
    13  C    0.613098
    14  H    0.255160
    15  H    0.214581
    16  H    0.257286
    17  H    0.456484
    18  H    0.384564
    19  H    0.464188
    20  N   -0.698243
    21  O   -0.518928
    22  H    0.357009
    23  H    0.414622
 Sum of Mulliken charges =   1.00000
 Mulliken charges with hydrogens summed into heavy atoms:
               1
     1  C    0.026766
     7  C    0.146920
     8  C    0.145371
     9  C    0.553121
    10  N   -0.050688
    11  O   -0.411720
    12  O   -0.142140
    13  C    0.613098
    20  N    0.172864
    21  O   -0.053592
 Electronic spatial extent (au):  <R**2>=           1998.8060
 Charge=              1.0000 electrons
 Dipole moment (field-independent basis, Debye):
    X=              4.8327    Y=              1.3275    Z=             -0.9698  Tot=              5.1047
 Quadrupole moment (field-independent basis, Debye-Ang):
   XX=            -33.6910   YY=            -46.2698   ZZ=            -46.4458
   XY=             -2.4464   XZ=             -5.3048   YZ=              3.5579
 Traceless Quadrupole moment (field-independent basis, Debye-Ang):
   XX=              8.4445   YY=             -4.1342   ZZ=             -4.3103
   XY=             -2.4464   XZ=             -5.3048   YZ=              3.5579
 Octapole moment (field-independent basis, Debye-Ang**2):
  XXX=            -22.1219  YYY=              9.6546  ZZZ=              9.3900  XYY=             28.5695
  XXY=            -20.1878  XXZ=             -4.7288  XZZ=             27.0319  YZZ=            -10.8872
  YYZ=            -12.9160  XYZ=             12.2275
 Hexadecapole moment (field-independent basis, Debye-Ang**3):
 XXXX=          -1444.3254 YYYY=           -414.0501 ZZZZ=           -196.1385 XXXY=             20.6732
 XXXZ=            -40.1983 YYYX=            -31.1132 YYYZ=             57.7876 ZZZX=             21.9182
 ZZZY=              2.9523 XXYY=           -321.4033 XXZZ=           -281.9334 YYZZ=            -97.8543
 XXYZ=             22.9567 YYXZ=            -42.4760 ZZXY=            -41.2844
 N-N= 5.843594844136D+02 E-N=-2.400957590952D+03  KE= 5.295911296852D+02
 No NMR shielding tensors so no spin-rotation constants.
 Leave Link  601 at Thu Mar 12 19:33:49 2020, MaxMem=    33554432 cpu:         0.1
 (Enter /usr/local/gaussian09d01/g09/l9999.exe)
 1\1\GINC-KARURA\SP\RM062X\6-31G\C5H13N2O3(1+)\RTAKE\12-Mar-2020\0\\#p 
 M062X/6-31G\\chk calc\\1,1\C,0,3.824482709,-1.14219544,1.17225369\H,0,
 4.799113079,-1.62961423,1.173808707\H,0,3.053614027,-1.916312598,1.160
 804944\H,0,-2.642196787,-3.231646388,-0.733866315\H,0,3.75960642,-0.53
 291794,2.07824618\H,0,3.765323683,-0.52154146,0.273951194\C,0,-2.40154
 2122,-0.705499021,0.492562549\C,0,-1.33365594,0.193207044,1.141270536\
 C,0,0.021967089,-0.47033751,0.950186539\N,0,-1.303304814,1.529148773,0
 .515945207\O,0,0.155929117,-1.611462803,0.51692019\O,0,1.024922388,0.3
 53392554,1.298656\C,0,-2.121889445,-0.918337302,-0.967112723\H,0,-3.39
 229932,-0.247402335,0.596496855\H,0,-2.419176945,-1.669900059,1.004436
 439\H,0,-1.526304416,0.239474424,2.221387894\H,0,-1.503902114,0.960750
 702,-1.170400229\H,0,-0.410560182,1.997532273,0.666150752\H,0,1.924402
 159,-0.039925506,1.230818645\N,0,-1.700457396,0.069239192,-1.694919761
 \O,0,-2.336854815,-2.071648312,-1.575178364\H,0,-2.071900591,2.1285565
 43,0.807834339\H,0,-1.514408501,-0.054510917,-2.685235696\\Version=ES6
 4L-G09RevD.01\State=1-A\HF=-532.8401729\RMSD=5.788e-09\Dipole=-1.98170
 95,0.2746447,-0.1754885\Quadrupole=6.4158608,-0.8723499,-5.5435109,3.7
 429205,2.2551653,0.0700831\PG=C01 [X(C5H13N2O3)]\\@


 CHEMISTRY BEGAN BY SAYING IT WOULD CHANGE THE BASER
 METALS INTO GOLD.  BY NOT DOING THAT IT HAS DONE MUCH
 GREATER THINGS.  --  RALPH WALDO EMERSON
 Job cpu time:       0 days  0 hours  0 minutes 56.7 seconds.
 File lengths (MBytes):  RWF=      7 Int=      0 D2E=      0 Chk=      2 Scr=      1
 Normal termination of Gaussian 09 at Thu Mar 12 19:33:49 2020.
