 Entering Gaussian System, Link 0=g09
 Input=./h4_o21_17.gjf
 Output=./h4_o21_17.log
 Initial command:
 /usr/local/gaussian09d01/g09/l1.exe "/scr/Gau-22669.inp" -scrdir="/scr/"
 Entering Link 1 = /usr/local/gaussian09d01/g09/l1.exe PID=     22670.
  
 Copyright (c) 1988,1990,1992,1993,1995,1998,2003,2009,2013,
            Gaussian, Inc.  All Rights Reserved.
  
 This is part of the Gaussian(R) 09 program.  It is based on
 the Gaussian(R) 03 system (copyright 2003, Gaussian, Inc.),
 the Gaussian(R) 98 system (copyright 1998, Gaussian, Inc.),
 the Gaussian(R) 94 system (copyright 1995, Gaussian, Inc.),
 the Gaussian 92(TM) system (copyright 1992, Gaussian, Inc.),
 the Gaussian 90(TM) system (copyright 1990, Gaussian, Inc.),
 the Gaussian 88(TM) system (copyright 1988, Gaussian, Inc.),
 the Gaussian 86(TM) system (copyright 1986, Carnegie Mellon
 University), and the Gaussian 82(TM) system (copyright 1983,
 Carnegie Mellon University). Gaussian is a federally registered
 trademark of Gaussian, Inc.
  
 This software contains proprietary and confidential information,
 including trade secrets, belonging to Gaussian, Inc.
  
 This software is provided under written license and may be
 used, copied, transmitted, or stored only in accord with that
 written license.
  
 The following legend is applicable only to US Government
 contracts under FAR:
  
                    RESTRICTED RIGHTS LEGEND
  
 Use, reproduction and disclosure by the US Government is
 subject to restrictions as set forth in subparagraphs (a)
 and (c) of the Commercial Computer Software - Restricted
 Rights clause in FAR 52.227-19.
  
 Gaussian, Inc.
 340 Quinnipiac St., Bldg. 40, Wallingford CT 06492
  
  
 ---------------------------------------------------------------
 Warning -- This program may not be used in any manner that
 competes with the business of Gaussian, Inc. or will provide
 assistance to any competitor of Gaussian, Inc.  The licensee
 of this program is prohibited from giving any competitor of
 Gaussian, Inc. access to this program.  By using this program,
 the user acknowledges that Gaussian, Inc. is engaged in the
 business of creating and licensing software in the field of
 computational chemistry and represents and warrants to the
 licensee that it is not a competitor of Gaussian, Inc. and that
 it will not use this program in any manner prohibited above.
 ---------------------------------------------------------------
  

 Cite this work as:
 Gaussian 09, Revision D.01,
 M. J. Frisch, G. W. Trucks, H. B. Schlegel, G. E. Scuseria, 
 M. A. Robb, J. R. Cheeseman, G. Scalmani, V. Barone, B. Mennucci, 
 G. A. Petersson, H. Nakatsuji, M. Caricato, X. Li, H. P. Hratchian, 
 A. F. Izmaylov, J. Bloino, G. Zheng, J. L. Sonnenberg, M. Hada, 
 M. Ehara, K. Toyota, R. Fukuda, J. Hasegawa, M. Ishida, T. Nakajima, 
 Y. Honda, O. Kitao, H. Nakai, T. Vreven, J. A. Montgomery, Jr., 
 J. E. Peralta, F. Ogliaro, M. Bearpark, J. J. Heyd, E. Brothers, 
 K. N. Kudin, V. N. Staroverov, T. Keith, R. Kobayashi, J. Normand, 
 K. Raghavachari, A. Rendell, J. C. Burant, S. S. Iyengar, J. Tomasi, 
 M. Cossi, N. Rega, J. M. Millam, M. Klene, J. E. Knox, J. B. Cross, 
 V. Bakken, C. Adamo, J. Jaramillo, R. Gomperts, R. E. Stratmann, 
 O. Yazyev, A. J. Austin, R. Cammi, C. Pomelli, J. W. Ochterski, 
 R. L. Martin, K. Morokuma, V. G. Zakrzewski, G. A. Voth, 
 P. Salvador, J. J. Dannenberg, S. Dapprich, A. D. Daniels, 
 O. Farkas, J. B. Foresman, J. V. Ortiz, J. Cioslowski, 
 and D. J. Fox, Gaussian, Inc., Wallingford CT, 2013.
 
 ******************************************
 Gaussian 09:  ES64L-G09RevD.01 24-Apr-2013
                12-Mar-2020 
 ******************************************
 --------------
 #p M062X/6-31G
 --------------
 1/38=1/1;
 2/12=2,17=6,18=5,40=1/2;
 3/5=1,6=6,11=2,16=1,25=1,30=1,74=-55/1,2,3;
 4//1;
 5/5=2,38=5/2;
 6/7=2,8=2,9=2,10=2,28=1/1;
 99/5=1,9=1/99;
 Leave Link    1 at Thu Mar 12 19:34:46 2020, MaxMem=           0 cpu:         0.0
 (Enter /usr/local/gaussian09d01/g09/l101.exe)
 --------
 chk calc
 --------
 Symbolic Z-matrix:
 Charge =  1 Multiplicity = 1
 C                     3.82448  -1.1422    1.17225 
 H                     4.79911  -1.62961   1.17381 
 H                     3.05361  -1.91631   1.1608 
 H                    -2.68291  -3.38631  -0.62169 
 H                     3.75961  -0.53292   2.07825 
 H                     3.76532  -0.52154   0.27395 
 C                    -2.40154  -0.7055    0.49256 
 C                    -1.33366   0.19321   1.14127 
 C                     0.02197  -0.47034   0.95019 
 N                    -1.3033    1.52915   0.51595 
 O                     0.15593  -1.61146   0.51692 
 O                     1.02492   0.35339   1.29866 
 C                    -2.12189  -0.91834  -0.96711 
 H                    -3.3923   -0.2474    0.5965 
 H                    -2.41918  -1.6699    1.00444 
 H                    -1.5263    0.23947   2.22139 
 H                    -1.5039    0.96075  -1.1704 
 H                    -0.41056   1.99753   0.66615 
 H                     1.9244   -0.03993   1.23082 
 N                    -1.70046   0.06924  -1.69492 
 O                    -2.33685  -2.07165  -1.57518 
 H                    -2.0719    2.12856   0.80783 
 H                    -1.51441  -0.05451  -2.68524 
 
 NAtoms=     23 NQM=       23 NQMF=       0 NMMI=      0 NMMIF=      0
                NMic=       0 NMicF=      0.
                    Isotopes and Nuclear Properties:
 (Nuclear quadrupole moments (NQMom) in fm**2, nuclear magnetic moments (NMagM)
  in nuclear magnetons)

  Atom         1           2           3           4           5           6           7           8           9          10
 IAtWgt=          12           1           1           1           1           1          12          12          12          14
 AtmWgt=  12.0000000   1.0078250   1.0078250   1.0078250   1.0078250   1.0078250  12.0000000  12.0000000  12.0000000  14.0030740
 NucSpn=           0           1           1           1           1           1           0           0           0           2
 AtZEff=   0.0000000   0.0000000   0.0000000   0.0000000   0.0000000   0.0000000   0.0000000   0.0000000   0.0000000   0.0000000
 NQMom=    0.0000000   0.0000000   0.0000000   0.0000000   0.0000000   0.0000000   0.0000000   0.0000000   0.0000000   2.0440000
 NMagM=    0.0000000   2.7928460   2.7928460   2.7928460   2.7928460   2.7928460   0.0000000   0.0000000   0.0000000   0.4037610
 AtZNuc=   6.0000000   1.0000000   1.0000000   1.0000000   1.0000000   1.0000000   6.0000000   6.0000000   6.0000000   7.0000000

  Atom        11          12          13          14          15          16          17          18          19          20
 IAtWgt=          16          16          12           1           1           1           1           1           1          14
 AtmWgt=  15.9949146  15.9949146  12.0000000   1.0078250   1.0078250   1.0078250   1.0078250   1.0078250   1.0078250  14.0030740
 NucSpn=           0           0           0           1           1           1           1           1           1           2
 AtZEff=   0.0000000   0.0000000   0.0000000   0.0000000   0.0000000   0.0000000   0.0000000   0.0000000   0.0000000   0.0000000
 NQMom=    0.0000000   0.0000000   0.0000000   0.0000000   0.0000000   0.0000000   0.0000000   0.0000000   0.0000000   2.0440000
 NMagM=    0.0000000   0.0000000   0.0000000   2.7928460   2.7928460   2.7928460   2.7928460   2.7928460   2.7928460   0.4037610
 AtZNuc=   8.0000000   8.0000000   6.0000000   1.0000000   1.0000000   1.0000000   1.0000000   1.0000000   1.0000000   7.0000000

  Atom        21          22          23
 IAtWgt=          16           1           1
 AtmWgt=  15.9949146   1.0078250   1.0078250
 NucSpn=           0           1           1
 AtZEff=   0.0000000   0.0000000   0.0000000
 NQMom=    0.0000000   0.0000000   0.0000000
 NMagM=    0.0000000   2.7928460   2.7928460
 AtZNuc=   8.0000000   1.0000000   1.0000000
 Leave Link  101 at Thu Mar 12 19:34:46 2020, MaxMem=    33554432 cpu:         0.0
 (Enter /usr/local/gaussian09d01/g09/l202.exe)
                          Input orientation:                          
 ---------------------------------------------------------------------
 Center     Atomic      Atomic             Coordinates (Angstroms)
 Number     Number       Type             X           Y           Z
 ---------------------------------------------------------------------
      1          6           0        3.824483   -1.142195    1.172254
      2          1           0        4.799113   -1.629614    1.173809
      3          1           0        3.053614   -1.916313    1.160805
      4          1           0       -2.682909   -3.386313   -0.621691
      5          1           0        3.759606   -0.532918    2.078246
      6          1           0        3.765324   -0.521541    0.273951
      7          6           0       -2.401542   -0.705499    0.492563
      8          6           0       -1.333656    0.193207    1.141271
      9          6           0        0.021967   -0.470338    0.950187
     10          7           0       -1.303305    1.529149    0.515945
     11          8           0        0.155929   -1.611463    0.516920
     12          8           0        1.024922    0.353393    1.298656
     13          6           0       -2.121889   -0.918337   -0.967113
     14          1           0       -3.392299   -0.247402    0.596497
     15          1           0       -2.419177   -1.669900    1.004436
     16          1           0       -1.526304    0.239474    2.221388
     17          1           0       -1.503902    0.960751   -1.170400
     18          1           0       -0.410560    1.997532    0.666151
     19          1           0        1.924402   -0.039926    1.230819
     20          7           0       -1.700457    0.069239   -1.694920
     21          8           0       -2.336855   -2.071648   -1.575178
     22          1           0       -2.071901    2.128557    0.807834
     23          1           0       -1.514409   -0.054511   -2.685236
 ---------------------------------------------------------------------
                    Distance matrix (angstroms):
                    1          2          3          4          5
     1  C    0.000000
     2  H    1.089717   0.000000
     3  H    1.092532   1.768935   0.000000
     4  H    7.113399   7.892431   6.184326   0.000000
     5  H    1.093732   1.761058   1.803858   7.545696   0.000000
     6  H    1.093462   1.762467   1.799563   7.112580   1.804340
     7  C    6.278222   7.291606   5.627730   2.916760   6.364270
     8  C    5.328288   6.398015   4.868120   4.212064   5.229388
     9  C    3.867794   4.920879   3.365425   4.276689   3.904662
    10  N    5.819023   6.902903   5.591940   5.230611   5.685594
    11  O    3.756056   4.689455   2.983974   3.536316   4.072774
    12  O    3.176523   4.265257   3.047319   5.605457   2.978557
    13  C    6.323476   7.279405   5.684173   2.554401   6.634362
    14  H    7.294799   8.327247   6.682328   3.440927   7.309368
    15  H    6.268167   7.220389   5.480567   2.379058   6.373630
    16  H    5.624999   6.678459   5.171838   4.750491   5.343962
    17  H    6.188869   7.206477   5.872220   4.537411   6.363118
    18  H    5.296189   6.368250   5.250083   5.983970   5.078138
    19  H    2.197438   3.285472   2.191084   5.988106   2.080661
    20  N    6.341389   7.304801   5.890567   3.749383   6.664208
    21  O    6.809871   7.659919   6.047056   1.660492   7.272004
    22  H    6.752626   7.840192   6.538842   5.729804   6.534820
    23  H    6.675855   7.565298   6.255011   4.089561   7.122841
                    6          7          8          9         10
     6  H    0.000000
     7  C    6.173481   0.000000
     8  C    5.221370   1.539115   0.000000
     9  C    3.804292   2.477522   1.521354   0.000000
    10  N    5.473106   2.490045   1.475362   2.437797   0.000000
    11  O    3.778186   2.713305   2.421882   1.227938   3.463063
    12  O    3.053740   3.675826   2.369245   1.343831   2.723175
    13  C    6.029674   1.501385   2.510403   2.910818   2.976530
    14  H    7.170129   1.096474   2.174610   3.439769   2.743450
    15  H    6.332486   1.091969   2.160613   2.720492   3.423114
    16  H    5.689726   2.155888   1.098138   2.125307   2.149773
    17  H    5.661103   2.519443   2.441706   2.978788   1.790831
    18  H    4.892602   3.361625   2.081690   2.521535   1.019283
    19  H    2.129916   4.438671   3.267616   1.970601   3.659389
    20  N    5.839541   2.424215   2.862497   3.202261   2.678990
    21  O    6.561912   2.479133   3.676285   3.808636   4.290310
    22  H    6.432825   2.870528   2.098038   3.340478   1.017462
    23  H    6.070459   3.362914   3.838774   3.968584   3.577723
                   11         12         13         14         15
    11  O    0.000000
    12  O    2.286245   0.000000
    13  C    2.805572   4.080861   0.000000
    14  H    3.802225   4.512852   2.123434   0.000000
    15  H    2.621499   4.005259   2.130782   1.771124   0.000000
    16  H    3.026729   2.715358   3.444094   2.521757   2.433907
    17  H    3.495479   3.586095   1.988519   2.854401   3.533832
    18  H    3.656231   2.272415   3.754796   3.733008   4.195121
    19  H    2.471210   0.984055   4.687748   5.358426   4.644862
    20  N    3.341132   4.058317   1.297157   2.865865   3.290545
    21  O    3.286734   5.043936   1.321393   3.026220   2.612009
    22  H    4.362981   3.603113   3.526542   2.726407   3.819362
    23  H    3.932929   4.741938   2.016724   3.785954   4.128168
                   16         17         18         19         20
    16  H    0.000000
    17  H    3.467704   0.000000
    18  H    2.598926   2.375549   0.000000
    19  H    3.600926   4.303542   3.149942   0.000000
    20  N    3.923872   1.052876   3.310106   4.659557   0.000000
    21  O    4.517986   3.170662   5.029155   5.491796   2.236680
    22  H    2.421661   2.366391   1.672511   4.566362   3.262290
    23  H    4.915437   1.823621   4.081808   5.211632   1.015211
                   21         22         23
    21  O    0.000000
    22  H    4.836390   0.000000
    23  H    2.444890   4.156696   0.000000
 Stoichiometry    C5H13N2O3(1+)
 Framework group  C1[X(C5H13N2O3)]
 Deg. of freedom    63
 Full point group                 C1      NOp   1
 Largest Abelian subgroup         C1      NOp   1
 Largest concise Abelian subgroup C1      NOp   1
                         Standard orientation:                         
 ---------------------------------------------------------------------
 Center     Atomic      Atomic             Coordinates (Angstroms)
 Number     Number       Type             X           Y           Z
 ---------------------------------------------------------------------
      1          6           0       -4.367923   -0.941824    0.333209
      2          1           0       -5.271059   -1.544999    0.422705
      3          1           0       -3.649557   -1.488656   -0.282057
      4          1           0        2.335808   -2.535419   -1.433396
      5          1           0       -4.649696    0.005379   -0.135471
      6          1           0       -3.974380   -0.782123    1.340819
      7          6           0        1.654471    0.262423   -0.969337
      8          6           0        0.420624    1.146633   -0.715036
      9          6           0       -0.762663    0.235034   -0.426353
     10          7           0        0.628180    2.039512    0.440984
     11          8           0       -0.723105   -0.983454   -0.573174
     12          8           0       -1.823108    0.932485    0.015121
     13          6           0        1.946128   -0.619348    0.210313
     14          1           0        2.532754    0.889290   -1.164042
     15          1           0        1.477873   -0.356217   -1.851660
     16          1           0        0.191593    1.698771   -1.636228
     17          1           0        1.450171    0.831545    1.476466
     18          1           0       -0.255350    2.356903    0.837942
     19          1           0       -2.630485    0.394922    0.181056
     20          7           0        1.830210   -0.148320    1.413356
     21          8           0        2.374775   -1.862918    0.084318
     22          1           0        1.229791    2.833591    0.234271
     23          1           0        2.031491   -0.727742    2.222312
 ---------------------------------------------------------------------
 Rotational constants (GHZ):      1.7849007      0.7160774      0.6053383
 Leave Link  202 at Thu Mar 12 19:34:46 2020, MaxMem=    33554432 cpu:         0.0
 (Enter /usr/local/gaussian09d01/g09/l301.exe)
 Standard basis: 6-31G (6D, 7F)
 Ernie: Thresh=  0.10000D-02 Tol=  0.10000D-05 Strict=F.
 There are   116 symmetry adapted cartesian basis functions of A   symmetry.
 There are   116 symmetry adapted basis functions of A   symmetry.
   116 basis functions,   272 primitive gaussians,   116 cartesian basis functions
    40 alpha electrons       40 beta electrons
       nuclear repulsion energy       583.7236004881 Hartrees.
 IExCor= 4336 DFT=T Ex+Corr=M062X ExCW=0 ScaHFX=  0.540000
 ScaDFX=  1.000000  1.000000  1.000000  1.000000 ScalE2=  1.000000  1.000000
 IRadAn=      0 IRanWt=     -1 IRanGd=            0 ICorTp=0 IEmpDi=  4
 NAtoms=   23 NActive=   23 NUniq=   23 SFac= 1.00D+00 NAtFMM=   60 NAOKFM=F Big=F
 Integral buffers will be    131072 words long.
 Raffenetti 2 integral format.
 Two-electron integral symmetry is turned on.
 Leave Link  301 at Thu Mar 12 19:34:46 2020, MaxMem=    33554432 cpu:         0.0
 (Enter /usr/local/gaussian09d01/g09/l302.exe)
 NPDir=0 NMtPBC=     1 NCelOv=     1 NCel=       1 NClECP=     1 NCelD=      1
         NCelK=      1 NCelE2=     1 NClLst=     1 CellRange=     0.0.
 One-electron integrals computed using PRISM.
 NBasis=   116 RedAO= T EigKep=  3.56D-03  NBF=   116
 NBsUse=   116 1.00D-06 EigRej= -1.00D+00 NBFU=   116
 Precomputing XC quadrature grid using
 IXCGrd= 4 IRadAn=           0 IRanWt=          -1 IRanGd=           0 AccXCQ= 0.00D+00.
 Generated NRdTot=       0 NPtTot=           0 NUsed=           0 NTot=          32
 NSgBfM=   115   115   115   115   115 MxSgAt=    23 MxSgA2=    23.
 Leave Link  302 at Thu Mar 12 19:34:47 2020, MaxMem=    33554432 cpu:         0.3
 (Enter /usr/local/gaussian09d01/g09/l303.exe)
 DipDrv:  MaxL=1.
 Leave Link  303 at Thu Mar 12 19:34:47 2020, MaxMem=    33554432 cpu:         0.0
 (Enter /usr/local/gaussian09d01/g09/l401.exe)
 ExpMin= 1.61D-01 ExpMax= 5.48D+03 ExpMxC= 8.25D+02 IAcc=1 IRadAn=         1 AccDes= 0.00D+00
 Harris functional with IExCor= 1009 and IRadAn=       1 diagonalized for initial guess.
 HarFok:  IExCor= 1009 AccDes= 0.00D+00 IRadAn=         1 IDoV= 1 UseB2=F ITyADJ=14
 ICtDFT=  3500011 ScaDFX=  1.000000  1.000000  1.000000  1.000000
 FoFCou: FMM=F IPFlag=           0 FMFlag=      100000 FMFlg1=           0
         NFxFlg=           0 DoJE=T BraDBF=F KetDBF=T FulRan=T
         wScrn=  0.000000 ICntrl=     500 IOpCl=  0 I1Cent=   200000004 NGrid=           0
         NMat0=    1 NMatS0=      1 NMatT0=    0 NMatD0=    1 NMtDS0=    0 NMtDT0=    0
 Petite list used in FoFCou.
 Harris En= -532.652090206396    
 JPrj=0 DoOrth=F DoCkMO=F.
 Leave Link  401 at Thu Mar 12 19:34:47 2020, MaxMem=    33554432 cpu:         0.8
 (Enter /usr/local/gaussian09d01/g09/l502.exe)
 Closed shell SCF:
 Using DIIS extrapolation, IDIIS=  1040.
 Integral symmetry usage will be decided dynamically.
 Keep R1 ints in memory in canonical form, NReq=24030401.
 IVT=       60528 IEndB=       60528 NGot=    33554432 MDV=    10465614
 LenX=    10465614 LenY=    10451717
 Requested convergence on RMS density matrix=1.00D-08 within 128 cycles.
 Requested convergence on MAX density matrix=1.00D-06.
 Requested convergence on             energy=1.00D-06.
 No special actions if energy rises.
 FoFCou: FMM=F IPFlag=           0 FMFlag=           0 FMFlg1=           0
         NFxFlg=           0 DoJE=F BraDBF=F KetDBF=F FulRan=T
         wScrn=  0.000000 ICntrl=     600 IOpCl=  0 I1Cent=           0 NGrid=           0
         NMat0=    1 NMatS0=   6786 NMatT0=    0 NMatD0=    1 NMtDS0=    0 NMtDT0=    0
 Symmetry not used in FoFCou.
 Integral accuracy reduced to 1.0D-05 until final iterations.

 Cycle   1  Pass 0  IDiag  1:
 E= -532.509610063462    
 DIIS: error= 4.93D-02 at cycle   1 NSaved=   1.
 NSaved= 1 IEnMin= 1 EnMin= -532.509610063462     IErMin= 1 ErrMin= 4.93D-02
 ErrMax= 4.93D-02  0.00D+00 EMaxC= 1.00D-01 BMatC= 3.27D-01 BMatP= 3.27D-01
 IDIUse=3 WtCom= 5.07D-01 WtEn= 4.93D-01
 Coeff-Com:  0.100D+01
 Coeff-En:   0.100D+01
 Coeff:      0.100D+01
 Gap=     0.099 Goal=   None    Shift=    0.000
 GapD=    0.099 DampG=0.500 DampE=0.500 DampFc=0.2500 IDamp=-1.
 Damping current iteration by 2.50D-01
 RMSDP=8.75D-03 MaxDP=1.64D-01              OVMax= 2.22D-01

 Cycle   2  Pass 0  IDiag  1:
 E= -532.614202146488     Delta-E=       -0.104592083026 Rises=F Damp=T
 DIIS: error= 2.68D-02 at cycle   2 NSaved=   2.
 NSaved= 2 IEnMin= 2 EnMin= -532.614202146488     IErMin= 2 ErrMin= 2.68D-02
 ErrMax= 2.68D-02  0.00D+00 EMaxC= 1.00D-01 BMatC= 8.67D-02 BMatP= 3.27D-01
 IDIUse=3 WtCom= 7.32D-01 WtEn= 2.68D-01
 Coeff-Com: -0.854D+00 0.185D+01
 Coeff-En:   0.000D+00 0.100D+01
 Coeff:     -0.625D+00 0.162D+01
 Gap=     0.192 Goal=   None    Shift=    0.000
 RMSDP=3.07D-03 MaxDP=5.97D-02 DE=-1.05D-01 OVMax= 1.06D-01

 Cycle   3  Pass 0  IDiag  1:
 E= -532.787985587707     Delta-E=       -0.173783441219 Rises=F Damp=F
 DIIS: error= 1.12D-02 at cycle   3 NSaved=   3.
 NSaved= 3 IEnMin= 3 EnMin= -532.787985587707     IErMin= 3 ErrMin= 1.12D-02
 ErrMax= 1.12D-02  0.00D+00 EMaxC= 1.00D-01 BMatC= 1.45D-02 BMatP= 8.67D-02
 IDIUse=3 WtCom= 8.88D-01 WtEn= 1.12D-01
 Coeff-Com: -0.285D+00 0.702D+00 0.583D+00
 Coeff-En:   0.000D+00 0.000D+00 0.100D+01
 Coeff:     -0.253D+00 0.623D+00 0.630D+00
 Gap=     0.219 Goal=   None    Shift=    0.000
 RMSDP=1.21D-03 MaxDP=2.03D-02 DE=-1.74D-01 OVMax= 3.08D-02

 Cycle   4  Pass 0  IDiag  1:
 E= -532.798470693967     Delta-E=       -0.010485106261 Rises=F Damp=F
 DIIS: error= 5.04D-03 at cycle   4 NSaved=   4.
 NSaved= 4 IEnMin= 4 EnMin= -532.798470693967     IErMin= 4 ErrMin= 5.04D-03
 ErrMax= 5.04D-03  0.00D+00 EMaxC= 1.00D-01 BMatC= 3.44D-03 BMatP= 1.45D-02
 IDIUse=3 WtCom= 9.50D-01 WtEn= 5.04D-02
 Coeff-Com:  0.539D-01-0.526D-01 0.332D+00 0.666D+00
 Coeff-En:   0.000D+00 0.000D+00 0.138D+00 0.862D+00
 Coeff:      0.512D-01-0.499D-01 0.323D+00 0.676D+00
 Gap=     0.212 Goal=   None    Shift=    0.000
 RMSDP=4.64D-04 MaxDP=1.02D-02 DE=-1.05D-02 OVMax= 1.68D-02

 Cycle   5  Pass 0  IDiag  1:
 E= -532.801058715852     Delta-E=       -0.002588021885 Rises=F Damp=F
 DIIS: error= 1.09D-03 at cycle   5 NSaved=   5.
 NSaved= 5 IEnMin= 5 EnMin= -532.801058715852     IErMin= 5 ErrMin= 1.09D-03
 ErrMax= 1.09D-03  0.00D+00 EMaxC= 1.00D-01 BMatC= 2.30D-04 BMatP= 3.44D-03
 IDIUse=3 WtCom= 9.89D-01 WtEn= 1.09D-02
 Coeff-Com:  0.466D-01-0.685D-01 0.144D+00 0.360D+00 0.518D+00
 Coeff-En:   0.000D+00 0.000D+00 0.000D+00 0.000D+00 0.100D+01
 Coeff:      0.460D-01-0.677D-01 0.143D+00 0.356D+00 0.523D+00
 Gap=     0.213 Goal=   None    Shift=    0.000
 RMSDP=1.24D-04 MaxDP=2.61D-03 DE=-2.59D-03 OVMax= 3.31D-03

 Cycle   6  Pass 0  IDiag  1:
 E= -532.801259312001     Delta-E=       -0.000200596148 Rises=F Damp=F
 DIIS: error= 4.03D-04 at cycle   6 NSaved=   6.
 NSaved= 6 IEnMin= 6 EnMin= -532.801259312001     IErMin= 6 ErrMin= 4.03D-04
 ErrMax= 4.03D-04  0.00D+00 EMaxC= 1.00D-01 BMatC= 9.70D-06 BMatP= 2.30D-04
 IDIUse=3 WtCom= 9.96D-01 WtEn= 4.03D-03
 Coeff-Com:  0.170D-01-0.259D-01 0.370D-01 0.846D-01 0.187D+00 0.700D+00
 Coeff-En:   0.000D+00 0.000D+00 0.000D+00 0.000D+00 0.000D+00 0.100D+01
 Coeff:      0.169D-01-0.258D-01 0.369D-01 0.843D-01 0.186D+00 0.701D+00
 Gap=     0.213 Goal=   None    Shift=    0.000
 RMSDP=3.50D-05 MaxDP=9.32D-04 DE=-2.01D-04 OVMax= 1.28D-03

 Cycle   7  Pass 0  IDiag  1:
 E= -532.801267259343     Delta-E=       -0.000007947342 Rises=F Damp=F
 DIIS: error= 2.79D-04 at cycle   7 NSaved=   7.
 NSaved= 7 IEnMin= 7 EnMin= -532.801267259343     IErMin= 7 ErrMin= 2.79D-04
 ErrMax= 2.79D-04  0.00D+00 EMaxC= 1.00D-01 BMatC= 3.98D-06 BMatP= 9.70D-06
 IDIUse=3 WtCom= 9.97D-01 WtEn= 2.79D-03
 Coeff-Com: -0.254D-03-0.163D-05-0.122D-01-0.405D-01-0.200D-01 0.444D+00
 Coeff-Com:  0.629D+00
 Coeff-En:   0.000D+00 0.000D+00 0.000D+00 0.000D+00 0.000D+00 0.609D-01
 Coeff-En:   0.939D+00
 Coeff:     -0.253D-03-0.162D-05-0.121D-01-0.404D-01-0.199D-01 0.443D+00
 Coeff:      0.630D+00
 Gap=     0.214 Goal=   None    Shift=    0.000
 RMSDP=2.41D-05 MaxDP=4.12D-04 DE=-7.95D-06 OVMax= 5.21D-04

 Cycle   8  Pass 0  IDiag  1:
 E= -532.801270809173     Delta-E=       -0.000003549830 Rises=F Damp=F
 DIIS: error= 4.05D-05 at cycle   8 NSaved=   8.
 NSaved= 8 IEnMin= 8 EnMin= -532.801270809173     IErMin= 8 ErrMin= 4.05D-05
 ErrMax= 4.05D-05  0.00D+00 EMaxC= 1.00D-01 BMatC= 1.64D-07 BMatP= 3.98D-06
 IDIUse=1 WtCom= 1.00D+00 WtEn= 0.00D+00
 Coeff-Com: -0.198D-02 0.285D-02-0.905D-02-0.257D-01-0.326D-01 0.934D-01
 Coeff-Com:  0.222D+00 0.751D+00
 Coeff:     -0.198D-02 0.285D-02-0.905D-02-0.257D-01-0.326D-01 0.934D-01
 Coeff:      0.222D+00 0.751D+00
 Gap=     0.214 Goal=   None    Shift=    0.000
 RMSDP=6.51D-06 MaxDP=1.11D-04 DE=-3.55D-06 OVMax= 2.11D-04

 Initial convergence to 1.0D-05 achieved.  Increase integral accuracy.
 Cycle   9  Pass 1  IDiag  1:
 E= -532.801511298570     Delta-E=       -0.000240489398 Rises=F Damp=F
 DIIS: error= 1.12D-04 at cycle   1 NSaved=   1.
 NSaved= 1 IEnMin= 1 EnMin= -532.801511298570     IErMin= 1 ErrMin= 1.12D-04
 ErrMax= 1.12D-04  0.00D+00 EMaxC= 1.00D-01 BMatC= 1.78D-06 BMatP= 1.78D-06
 IDIUse=3 WtCom= 9.99D-01 WtEn= 1.12D-03
 Coeff-Com:  0.100D+01
 Coeff-En:   0.100D+01
 Coeff:      0.100D+01
 Gap=     0.214 Goal=   None    Shift=    0.000
 RMSDP=6.51D-06 MaxDP=1.11D-04 DE=-2.40D-04 OVMax= 2.10D-04

 Cycle  10  Pass 1  IDiag  1:
 E= -532.801512975407     Delta-E=       -0.000001676837 Rises=F Damp=F
 DIIS: error= 6.14D-05 at cycle   2 NSaved=   2.
 NSaved= 2 IEnMin= 2 EnMin= -532.801512975407     IErMin= 2 ErrMin= 6.14D-05
 ErrMax= 6.14D-05  0.00D+00 EMaxC= 1.00D-01 BMatC= 3.91D-07 BMatP= 1.78D-06
 IDIUse=1 WtCom= 1.00D+00 WtEn= 0.00D+00
 Coeff-Com:  0.245D+00 0.755D+00
 Coeff:      0.245D+00 0.755D+00
 Gap=     0.213 Goal=   None    Shift=    0.000
 RMSDP=7.90D-06 MaxDP=1.24D-04 DE=-1.68D-06 OVMax= 1.40D-04

 Cycle  11  Pass 1  IDiag  1:
 E= -532.801513232439     Delta-E=       -0.000000257032 Rises=F Damp=F
 DIIS: error= 3.41D-05 at cycle   3 NSaved=   3.
 NSaved= 3 IEnMin= 3 EnMin= -532.801513232439     IErMin= 3 ErrMin= 3.41D-05
 ErrMax= 3.41D-05  0.00D+00 EMaxC= 1.00D-01 BMatC= 1.72D-07 BMatP= 3.91D-07
 IDIUse=1 WtCom= 1.00D+00 WtEn= 0.00D+00
 Coeff-Com: -0.236D-01 0.387D+00 0.636D+00
 Coeff:     -0.236D-01 0.387D+00 0.636D+00
 Gap=     0.213 Goal=   None    Shift=    0.000
 RMSDP=4.00D-06 MaxDP=1.03D-04 DE=-2.57D-07 OVMax= 1.36D-04

 Cycle  12  Pass 1  IDiag  1:
 E= -532.801513357241     Delta-E=       -0.000000124802 Rises=F Damp=F
 DIIS: error= 1.80D-05 at cycle   4 NSaved=   4.
 NSaved= 4 IEnMin= 4 EnMin= -532.801513357241     IErMin= 4 ErrMin= 1.80D-05
 ErrMax= 1.80D-05  0.00D+00 EMaxC= 1.00D-01 BMatC= 3.04D-08 BMatP= 1.72D-07
 IDIUse=1 WtCom= 1.00D+00 WtEn= 0.00D+00
 Coeff-Com: -0.359D-01 0.178D+00 0.393D+00 0.465D+00
 Coeff:     -0.359D-01 0.178D+00 0.393D+00 0.465D+00
 Gap=     0.213 Goal=   None    Shift=    0.000
 RMSDP=1.18D-06 MaxDP=4.17D-05 DE=-1.25D-07 OVMax= 4.96D-05

 Cycle  13  Pass 1  IDiag  1:
 E= -532.801513383111     Delta-E=       -0.000000025870 Rises=F Damp=F
 DIIS: error= 2.39D-06 at cycle   5 NSaved=   5.
 NSaved= 5 IEnMin= 5 EnMin= -532.801513383111     IErMin= 5 ErrMin= 2.39D-06
 ErrMax= 2.39D-06  0.00D+00 EMaxC= 1.00D-01 BMatC= 4.61D-10 BMatP= 3.04D-08
 IDIUse=1 WtCom= 1.00D+00 WtEn= 0.00D+00
 Coeff-Com: -0.644D-02 0.822D-02 0.346D-01 0.105D+00 0.859D+00
 Coeff:     -0.644D-02 0.822D-02 0.346D-01 0.105D+00 0.859D+00
 Gap=     0.213 Goal=   None    Shift=    0.000
 RMSDP=3.36D-07 MaxDP=7.20D-06 DE=-2.59D-08 OVMax= 1.37D-05

 Cycle  14  Pass 1  IDiag  1:
 E= -532.801513383688     Delta-E=       -0.000000000577 Rises=F Damp=F
 DIIS: error= 1.03D-06 at cycle   6 NSaved=   6.
 NSaved= 6 IEnMin= 6 EnMin= -532.801513383688     IErMin= 6 ErrMin= 1.03D-06
 ErrMax= 1.03D-06  0.00D+00 EMaxC= 1.00D-01 BMatC= 1.99D-10 BMatP= 4.61D-10
 IDIUse=1 WtCom= 1.00D+00 WtEn= 0.00D+00
 Coeff-Com:  0.273D-02-0.239D-01-0.450D-01-0.223D-01 0.451D+00 0.638D+00
 Coeff:      0.273D-02-0.239D-01-0.450D-01-0.223D-01 0.451D+00 0.638D+00
 Gap=     0.213 Goal=   None    Shift=    0.000
 RMSDP=1.43D-07 MaxDP=2.55D-06 DE=-5.77D-10 OVMax= 4.11D-06

 Cycle  15  Pass 1  IDiag  1:
 E= -532.801513383918     Delta-E=       -0.000000000231 Rises=F Damp=F
 DIIS: error= 2.64D-07 at cycle   7 NSaved=   7.
 NSaved= 7 IEnMin= 7 EnMin= -532.801513383918     IErMin= 7 ErrMin= 2.64D-07
 ErrMax= 2.64D-07  0.00D+00 EMaxC= 1.00D-01 BMatC= 4.42D-12 BMatP= 1.99D-10
 IDIUse=1 WtCom= 1.00D+00 WtEn= 0.00D+00
 Coeff-Com:  0.530D-03-0.905D-03-0.323D-02-0.122D-01-0.752D-01-0.739D-03
 Coeff-Com:  0.109D+01
 Coeff:      0.530D-03-0.905D-03-0.323D-02-0.122D-01-0.752D-01-0.739D-03
 Coeff:      0.109D+01
 Gap=     0.213 Goal=   None    Shift=    0.000
 RMSDP=6.65D-08 MaxDP=1.11D-06 DE=-2.31D-10 OVMax= 2.53D-06

 Cycle  16  Pass 1  IDiag  1:
 E= -532.801513383938     Delta-E=       -0.000000000020 Rises=F Damp=F
 DIIS: error= 1.20D-07 at cycle   8 NSaved=   8.
 NSaved= 8 IEnMin= 8 EnMin= -532.801513383938     IErMin= 8 ErrMin= 1.20D-07
 ErrMax= 1.20D-07  0.00D+00 EMaxC= 1.00D-01 BMatC= 1.24D-12 BMatP= 4.42D-12
 IDIUse=1 WtCom= 1.00D+00 WtEn= 0.00D+00
 Coeff-Com:  0.610D-04 0.119D-02 0.174D-02-0.373D-02-0.602D-01-0.440D-01
 Coeff-Com:  0.433D+00 0.672D+00
 Coeff:      0.610D-04 0.119D-02 0.174D-02-0.373D-02-0.602D-01-0.440D-01
 Coeff:      0.433D+00 0.672D+00
 Gap=     0.213 Goal=   None    Shift=    0.000
 RMSDP=1.71D-08 MaxDP=3.24D-07 DE=-1.98D-11 OVMax= 8.11D-07

 Cycle  17  Pass 1  IDiag  1:
 E= -532.801513383934     Delta-E=        0.000000000004 Rises=F Damp=F
 DIIS: error= 7.32D-08 at cycle   9 NSaved=   9.
 NSaved= 9 IEnMin= 8 EnMin= -532.801513383938     IErMin= 9 ErrMin= 7.32D-08
 ErrMax= 7.32D-08  0.00D+00 EMaxC= 1.00D-01 BMatC= 3.07D-13 BMatP= 1.24D-12
 IDIUse=1 WtCom= 1.00D+00 WtEn= 0.00D+00
 Coeff-Com: -0.136D-03 0.982D-03 0.208D-02 0.135D-02-0.134D-01-0.251D-01
 Coeff-Com: -0.681D-01 0.302D+00 0.800D+00
 Coeff:     -0.136D-03 0.982D-03 0.208D-02 0.135D-02-0.134D-01-0.251D-01
 Coeff:     -0.681D-01 0.302D+00 0.800D+00
 Gap=     0.213 Goal=   None    Shift=    0.000
 RMSDP=1.12D-08 MaxDP=2.30D-07 DE= 3.64D-12 OVMax= 6.45D-07

 Cycle  18  Pass 1  IDiag  1:
 E= -532.801513383936     Delta-E=       -0.000000000001 Rises=F Damp=F
 DIIS: error= 3.41D-08 at cycle  10 NSaved=  10.
 NSaved=10 IEnMin= 8 EnMin= -532.801513383938     IErMin=10 ErrMin= 3.41D-08
 ErrMax= 3.41D-08  0.00D+00 EMaxC= 1.00D-01 BMatC= 8.00D-14 BMatP= 3.07D-13
 IDIUse=1 WtCom= 1.00D+00 WtEn= 0.00D+00
 Coeff-Com: -0.684D-04 0.265D-03 0.698D-03 0.115D-02 0.329D-02-0.515D-02
 Coeff-Com: -0.103D+00 0.612D-01 0.434D+00 0.608D+00
 Coeff:     -0.684D-04 0.265D-03 0.698D-03 0.115D-02 0.329D-02-0.515D-02
 Coeff:     -0.103D+00 0.612D-01 0.434D+00 0.608D+00
 Gap=     0.213 Goal=   None    Shift=    0.000
 RMSDP=4.30D-09 MaxDP=9.21D-08 DE=-1.14D-12 OVMax= 2.38D-07

 SCF Done:  E(RM062X) =  -532.801513384     A.U. after   18 cycles
            NFock= 18  Conv=0.43D-08     -V/T= 2.0061
 KE= 5.295498783728D+02 PE=-2.399822381304D+03 EE= 7.537473890593D+02
 Leave Link  502 at Thu Mar 12 19:35:47 2020, MaxMem=    33554432 cpu:        59.7
 (Enter /usr/local/gaussian09d01/g09/l601.exe)
 Copying SCF densities to generalized density rwf, IOpCl= 0 IROHF=0.

 **********************************************************************

            Population analysis using the SCF density.

 **********************************************************************

 Orbital symmetries:
       Occupied  (A) (A) (A) (A) (A) (A) (A) (A) (A) (A) (A) (A)
                 (A) (A) (A) (A) (A) (A) (A) (A) (A) (A) (A) (A)
                 (A) (A) (A) (A) (A) (A) (A) (A) (A) (A) (A) (A)
                 (A) (A) (A) (A)
       Virtual   (A) (A) (A) (A) (A) (A) (A) (A) (A) (A) (A) (A)
                 (A) (A) (A) (A) (A) (A) (A) (A) (A) (A) (A) (A)
                 (A) (A) (A) (A) (A) (A) (A) (A) (A) (A) (A) (A)
                 (A) (A) (A) (A) (A) (A) (A) (A) (A) (A) (A) (A)
                 (A) (A) (A) (A) (A) (A) (A) (A) (A) (A) (A) (A)
                 (A) (A) (A) (A) (A) (A) (A) (A) (A) (A) (A) (A)
                 (A) (A) (A) (A)
 The electronic state is 1-A.
 Alpha  occ. eigenvalues --  -19.89112 -19.83704 -19.80122 -14.97569 -14.92492
 Alpha  occ. eigenvalues --  -10.87850 -10.85772 -10.77412 -10.74799 -10.62946
 Alpha  occ. eigenvalues --   -1.39921  -1.37973  -1.30852  -1.23096  -1.17818
 Alpha  occ. eigenvalues --   -1.05595  -0.96077  -0.89951  -0.87907  -0.84588
 Alpha  occ. eigenvalues --   -0.82089  -0.78014  -0.74092  -0.73346  -0.72776
 Alpha  occ. eigenvalues --   -0.71432  -0.69368  -0.68180  -0.65570  -0.63688
 Alpha  occ. eigenvalues --   -0.63006  -0.60312  -0.58161  -0.56951  -0.56741
 Alpha  occ. eigenvalues --   -0.55788  -0.54612  -0.53661  -0.51162  -0.48789
 Alpha virt. eigenvalues --   -0.27446  -0.14671  -0.11839  -0.03196  -0.00685
 Alpha virt. eigenvalues --   -0.00175   0.01418   0.02254   0.04316   0.05531
 Alpha virt. eigenvalues --    0.07182   0.07763   0.08336   0.10117   0.11238
 Alpha virt. eigenvalues --    0.11404   0.12655   0.13526   0.16125   0.18803
 Alpha virt. eigenvalues --    0.20353   0.25098   0.28731   0.39411   0.42262
 Alpha virt. eigenvalues --    0.44192   0.46636   0.47243   0.48369   0.48717
 Alpha virt. eigenvalues --    0.50263   0.52418   0.52516   0.54888   0.58817
 Alpha virt. eigenvalues --    0.59076   0.60143   0.61268   0.64128   0.64985
 Alpha virt. eigenvalues --    0.68016   0.70419   0.71757   0.75637   0.77759
 Alpha virt. eigenvalues --    0.78653   0.79763   0.81695   0.83718   0.84614
 Alpha virt. eigenvalues --    0.86865   0.87530   0.88265   0.88510   0.89399
 Alpha virt. eigenvalues --    0.92300   0.92760   0.94791   0.95521   0.97190
 Alpha virt. eigenvalues --    1.02841   1.04171   1.06606   1.09661   1.11651
 Alpha virt. eigenvalues --    1.13818   1.19607   1.24197   1.30602   1.33272
 Alpha virt. eigenvalues --    1.41922   1.52058   1.64186   1.74545   1.76737
 Alpha virt. eigenvalues --    1.85724
          Condensed to atoms (all electrons):
               1          2          3          4          5          6
     1  C    5.188951   0.375381   0.371621   0.000000   0.370262   0.371099
     2  H    0.375381   0.470319  -0.018034   0.000000  -0.019904  -0.020288
     3  H    0.371621  -0.018034   0.521574   0.000000  -0.029568  -0.030047
     4  H    0.000000   0.000000   0.000000   0.394588   0.000000   0.000000
     5  H    0.370262  -0.019904  -0.029568   0.000000   0.538321  -0.032147
     6  H    0.371099  -0.020288  -0.030047   0.000000  -0.032147   0.544174
     7  C    0.000000   0.000000  -0.000001  -0.011094   0.000000   0.000000
     8  C   -0.000005   0.000001   0.000084   0.000437  -0.000011  -0.000007
     9  C    0.000252   0.000038   0.001499   0.000009  -0.000152  -0.000130
    10  N    0.000000   0.000000  -0.000001   0.000007   0.000000   0.000000
    11  O   -0.001327   0.000015   0.003334   0.000159   0.000043   0.000016
    12  O   -0.005203   0.000175  -0.001632   0.000000  -0.000758  -0.000628
    13  C    0.000000   0.000000   0.000000   0.003167   0.000000   0.000000
    14  H    0.000000   0.000000   0.000000   0.000307   0.000000   0.000000
    15  H    0.000000   0.000000   0.000000   0.006549   0.000000   0.000000
    16  H    0.000001   0.000000  -0.000002  -0.000004   0.000000   0.000000
    17  H    0.000000   0.000000   0.000000  -0.000026   0.000000   0.000000
    18  H   -0.000001   0.000000   0.000000   0.000000   0.000000   0.000000
    19  H    0.026748  -0.000929   0.002072   0.000000   0.005142   0.004669
    20  N    0.000000   0.000000   0.000000   0.003062   0.000000   0.000000
    21  O    0.000000   0.000000   0.000000   0.156602   0.000000   0.000000
    22  H    0.000000   0.000000   0.000000   0.000000   0.000000   0.000000
    23  H    0.000000   0.000000   0.000000  -0.000043   0.000000   0.000000
               7          8          9         10         11         12
     1  C    0.000000  -0.000005   0.000252   0.000000  -0.001327  -0.005203
     2  H    0.000000   0.000001   0.000038   0.000000   0.000015   0.000175
     3  H   -0.000001   0.000084   0.001499  -0.000001   0.003334  -0.001632
     4  H   -0.011094   0.000437   0.000009   0.000007   0.000159   0.000000
     5  H    0.000000  -0.000011  -0.000152   0.000000   0.000043  -0.000758
     6  H    0.000000  -0.000007  -0.000130   0.000000   0.000016  -0.000628
     7  C    5.413698   0.215155  -0.047991  -0.071138   0.008130   0.005366
     8  C    0.215155   5.573280   0.152343   0.193109  -0.124317  -0.148307
     9  C   -0.047991   0.152343   4.755315  -0.049585   0.496879   0.193528
    10  N   -0.071138   0.193109  -0.049585   7.093732   0.002190   0.001800
    11  O    0.008130  -0.124317   0.496879   0.002190   8.123541  -0.108715
    12  O    0.005366  -0.148307   0.193528   0.001800  -0.108715   8.420386
    13  C    0.256618  -0.017906  -0.007974  -0.006893   0.010447  -0.000551
    14  H    0.376236  -0.027917   0.005661  -0.001511   0.000409  -0.000028
    15  H    0.367561  -0.027802  -0.002259   0.003951   0.004718   0.000130
    16  H   -0.043640   0.385330  -0.027407  -0.036193   0.001108   0.000946
    17  H   -0.009832  -0.011382  -0.000552   0.093798   0.000205  -0.000074
    18  H    0.004823  -0.034222  -0.007515   0.320726   0.000223   0.013174
    19  H   -0.000158   0.005476  -0.018676  -0.000119  -0.000593   0.237002
    20  N   -0.093524   0.006011   0.000529  -0.075845  -0.003358   0.000059
    21  O   -0.056537   0.002528  -0.000614  -0.000155  -0.001616  -0.000001
    22  H   -0.000964  -0.029173   0.004160   0.322163  -0.000080  -0.000004
    23  H    0.004024  -0.000243  -0.000101   0.001517   0.000028   0.000003
              13         14         15         16         17         18
     1  C    0.000000   0.000000   0.000000   0.000001   0.000000  -0.000001
     2  H    0.000000   0.000000   0.000000   0.000000   0.000000   0.000000
     3  H    0.000000   0.000000   0.000000  -0.000002   0.000000   0.000000
     4  H    0.003167   0.000307   0.006549  -0.000004  -0.000026   0.000000
     5  H    0.000000   0.000000   0.000000   0.000000   0.000000   0.000000
     6  H    0.000000   0.000000   0.000000   0.000000   0.000000   0.000000
     7  C    0.256618   0.376236   0.367561  -0.043640  -0.009832   0.004823
     8  C   -0.017906  -0.027917  -0.027802   0.385330  -0.011382  -0.034222
     9  C   -0.007974   0.005661  -0.002259  -0.027407  -0.000552  -0.007515
    10  N   -0.006893  -0.001511   0.003951  -0.036193   0.093798   0.320726
    11  O    0.010447   0.000409   0.004718   0.001108   0.000205   0.000223
    12  O   -0.000551  -0.000028   0.000130   0.000946  -0.000074   0.013174
    13  C    4.625864  -0.035031  -0.034126   0.004070  -0.015380   0.000168
    14  H   -0.035031   0.448174  -0.017199  -0.003275  -0.000271  -0.000053
    15  H   -0.034126  -0.017199   0.488244  -0.000679   0.000386  -0.000108
    16  H    0.004070  -0.003275  -0.000679   0.466215   0.000983   0.000980
    17  H   -0.015380  -0.000271   0.000386   0.000983   0.256518  -0.000511
    18  H    0.000168  -0.000053  -0.000108   0.000980  -0.000511   0.339069
    19  H   -0.000009   0.000002  -0.000002  -0.000252  -0.000020  -0.000264
    20  N    0.321195  -0.001457   0.004466  -0.000312   0.233672   0.000330
    21  O    0.315159   0.001020  -0.003173  -0.000068   0.001399   0.000002
    22  H   -0.000211   0.001633  -0.000076  -0.003853  -0.001534  -0.020992
    23  H   -0.020720  -0.000136  -0.000070   0.000011  -0.002703  -0.000013
              19         20         21         22         23
     1  C    0.026748   0.000000   0.000000   0.000000   0.000000
     2  H   -0.000929   0.000000   0.000000   0.000000   0.000000
     3  H    0.002072   0.000000   0.000000   0.000000   0.000000
     4  H    0.000000   0.003062   0.156602   0.000000  -0.000043
     5  H    0.005142   0.000000   0.000000   0.000000   0.000000
     6  H    0.004669   0.000000   0.000000   0.000000   0.000000
     7  C   -0.000158  -0.093524  -0.056537  -0.000964   0.004024
     8  C    0.005476   0.006011   0.002528  -0.029173  -0.000243
     9  C   -0.018676   0.000529  -0.000614   0.004160  -0.000101
    10  N   -0.000119  -0.075845  -0.000155   0.322163   0.001517
    11  O   -0.000593  -0.003358  -0.001616  -0.000080   0.000028
    12  O    0.237002   0.000059  -0.000001  -0.000004   0.000003
    13  C   -0.000009   0.321195   0.315159  -0.000211  -0.020720
    14  H    0.000002  -0.001457   0.001020   0.001633  -0.000136
    15  H   -0.000002   0.004466  -0.003173  -0.000076  -0.000070
    16  H   -0.000252  -0.000312  -0.000068  -0.003853   0.000011
    17  H   -0.000020   0.233672   0.001399  -0.001534  -0.002703
    18  H   -0.000264   0.000330   0.000002  -0.020992  -0.000013
    19  H    0.276011   0.000010   0.000000   0.000017  -0.000001
    20  N    0.000010   7.113633  -0.116101   0.000942   0.307083
    21  O    0.000000  -0.116101   8.182950   0.000002  -0.000720
    22  H    0.000017   0.000942   0.000002   0.371318  -0.000022
    23  H   -0.000001   0.307083  -0.000720  -0.000022   0.298941
 Mulliken charges:
               1
     1  C   -0.697780
     2  H    0.213227
     3  H    0.179102
     4  H    0.446282
     5  H    0.168771
     6  H    0.163289
     7  C   -0.316733
     8  C   -0.112463
     9  C    0.552742
    10  N   -0.791554
    11  O   -0.411440
    12  O   -0.606667
    13  C    0.602110
    14  H    0.253434
    15  H    0.209490
    16  H    0.256041
    17  H    0.455323
    18  H    0.384185
    19  H    0.463876
    20  N   -0.700397
    21  O   -0.480678
    22  H    0.356674
    23  H    0.413164
 Sum of Mulliken charges =   1.00000
 Mulliken charges with hydrogens summed into heavy atoms:
               1
     1  C    0.026609
     7  C    0.146192
     8  C    0.143578
     9  C    0.552742
    10  N   -0.050695
    11  O   -0.411440
    12  O   -0.142792
    13  C    0.602110
    20  N    0.168091
    21  O   -0.034396
 Electronic spatial extent (au):  <R**2>=           2000.6409
 Charge=              1.0000 electrons
 Dipole moment (field-independent basis, Debye):
    X=              4.8792    Y=              1.0948    Z=             -1.2745  Tot=              5.1604
 Quadrupole moment (field-independent basis, Debye-Ang):
   XX=            -33.7144   YY=            -45.4051   ZZ=            -45.6533
   XY=             -3.0077   XZ=             -5.9865   YZ=              4.5926
 Traceless Quadrupole moment (field-independent basis, Debye-Ang):
   XX=              7.8766   YY=             -3.8142   ZZ=             -4.0624
   XY=             -3.0077   XZ=             -5.9865   YZ=              4.5926
 Octapole moment (field-independent basis, Debye-Ang**2):
  XXX=            -22.1462  YYY=              6.5038  ZZZ=              7.7054  XYY=             30.7138
  XXY=            -21.3324  XXZ=             -6.1697  XZZ=             28.9408  YZZ=            -13.4960
  YYZ=            -16.2840  XYZ=             14.5603
 Hexadecapole moment (field-independent basis, Debye-Ang**3):
 XXXX=          -1447.1824 YYYY=           -405.3811 ZZZZ=           -194.8491 XXXY=             18.1846
 XXXZ=            -43.4884 YYYX=            -38.8084 YYYZ=             67.1393 ZZZX=             18.0590
 ZZZY=              8.3049 XXYY=           -317.1736 XXZZ=           -277.8066 YYZZ=            -91.3325
 XXYZ=             28.2299 YYXZ=            -50.2205 ZZXY=            -47.1814
 N-N= 5.837236004881D+02 E-N=-2.399822382328D+03  KE= 5.295498783728D+02
 No NMR shielding tensors so no spin-rotation constants.
 Leave Link  601 at Thu Mar 12 19:35:47 2020, MaxMem=    33554432 cpu:         0.1
 (Enter /usr/local/gaussian09d01/g09/l9999.exe)
 1\1\GINC-KARURA\SP\RM062X\6-31G\C5H13N2O3(1+)\RTAKE\12-Mar-2020\0\\#p 
 M062X/6-31G\\chk calc\\1,1\C,0,3.824482709,-1.14219544,1.17225369\H,0,
 4.799113079,-1.62961423,1.173808707\H,0,3.053614027,-1.916312598,1.160
 804944\H,0,-2.68290905,-3.386312798,-0.621691376\H,0,3.75960642,-0.532
 91794,2.07824618\H,0,3.765323683,-0.52154146,0.273951194\C,0,-2.401542
 122,-0.705499021,0.492562549\C,0,-1.33365594,0.193207044,1.141270536\C
 ,0,0.021967089,-0.47033751,0.950186539\N,0,-1.303304814,1.529148773,0.
 515945207\O,0,0.155929117,-1.611462803,0.51692019\O,0,1.024922388,0.35
 3392554,1.298656\C,0,-2.121889445,-0.918337302,-0.967112723\H,0,-3.392
 29932,-0.247402335,0.596496855\H,0,-2.419176945,-1.669900059,1.0044364
 39\H,0,-1.526304416,0.239474424,2.221387894\H,0,-1.503902114,0.9607507
 02,-1.170400229\H,0,-0.410560182,1.997532273,0.666150752\H,0,1.9244021
 59,-0.039925506,1.230818645\N,0,-1.700457396,0.069239192,-1.694919761\
 O,0,-2.336854815,-2.071648312,-1.575178364\H,0,-2.071900591,2.12855654
 3,0.807834339\H,0,-1.514408501,-0.054510917,-2.685235696\\Version=ES64
 L-G09RevD.01\State=1-A\HF=-532.8015134\RMSD=4.302e-09\Dipole=-2.021574
 2,0.1392891,-0.1257442\Quadrupole=6.1793115,-0.0146249,-6.1646866,4.45
 99786,2.0492894,-0.1116464\PG=C01 [X(C5H13N2O3)]\\@


 WE HAVE LEARNED THAT NOTHING IS SIMPLE AND
 RATIONAL EXCEPT WHAT WE OURSELVES HAVE INVENTED;
 THAT GOD THINKS IN TERMS NEITHER OF EUCLID OR RIEMANN; THAT SCIENCE HAS "EXPLAINED" NOTHING;
 THAT THE MORE WE KNOW THE MORE FANTASTIC THE WORLD BECOMES
 AND THE PROFOUNDER THE SURROUNDING DARKNESS.
   --  ALDOUS HUXLEY
 Job cpu time:       0 days  0 hours  1 minutes  1.1 seconds.
 File lengths (MBytes):  RWF=      7 Int=      0 D2E=      0 Chk=      2 Scr=      1
 Normal termination of Gaussian 09 at Thu Mar 12 19:35:47 2020.
