 Entering Gaussian System, Link 0=g09
 Input=./h4_o21_19.gjf
 Output=./h4_o21_19.log
 Initial command:
 /usr/local/gaussian09d01/g09/l1.exe "/scr/Gau-22718.inp" -scrdir="/scr/"
 Entering Link 1 = /usr/local/gaussian09d01/g09/l1.exe PID=     22719.
  
 Copyright (c) 1988,1990,1992,1993,1995,1998,2003,2009,2013,
            Gaussian, Inc.  All Rights Reserved.
  
 This is part of the Gaussian(R) 09 program.  It is based on
 the Gaussian(R) 03 system (copyright 2003, Gaussian, Inc.),
 the Gaussian(R) 98 system (copyright 1998, Gaussian, Inc.),
 the Gaussian(R) 94 system (copyright 1995, Gaussian, Inc.),
 the Gaussian 92(TM) system (copyright 1992, Gaussian, Inc.),
 the Gaussian 90(TM) system (copyright 1990, Gaussian, Inc.),
 the Gaussian 88(TM) system (copyright 1988, Gaussian, Inc.),
 the Gaussian 86(TM) system (copyright 1986, Carnegie Mellon
 University), and the Gaussian 82(TM) system (copyright 1983,
 Carnegie Mellon University). Gaussian is a federally registered
 trademark of Gaussian, Inc.
  
 This software contains proprietary and confidential information,
 including trade secrets, belonging to Gaussian, Inc.
  
 This software is provided under written license and may be
 used, copied, transmitted, or stored only in accord with that
 written license.
  
 The following legend is applicable only to US Government
 contracts under FAR:
  
                    RESTRICTED RIGHTS LEGEND
  
 Use, reproduction and disclosure by the US Government is
 subject to restrictions as set forth in subparagraphs (a)
 and (c) of the Commercial Computer Software - Restricted
 Rights clause in FAR 52.227-19.
  
 Gaussian, Inc.
 340 Quinnipiac St., Bldg. 40, Wallingford CT 06492
  
  
 ---------------------------------------------------------------
 Warning -- This program may not be used in any manner that
 competes with the business of Gaussian, Inc. or will provide
 assistance to any competitor of Gaussian, Inc.  The licensee
 of this program is prohibited from giving any competitor of
 Gaussian, Inc. access to this program.  By using this program,
 the user acknowledges that Gaussian, Inc. is engaged in the
 business of creating and licensing software in the field of
 computational chemistry and represents and warrants to the
 licensee that it is not a competitor of Gaussian, Inc. and that
 it will not use this program in any manner prohibited above.
 ---------------------------------------------------------------
  

 Cite this work as:
 Gaussian 09, Revision D.01,
 M. J. Frisch, G. W. Trucks, H. B. Schlegel, G. E. Scuseria, 
 M. A. Robb, J. R. Cheeseman, G. Scalmani, V. Barone, B. Mennucci, 
 G. A. Petersson, H. Nakatsuji, M. Caricato, X. Li, H. P. Hratchian, 
 A. F. Izmaylov, J. Bloino, G. Zheng, J. L. Sonnenberg, M. Hada, 
 M. Ehara, K. Toyota, R. Fukuda, J. Hasegawa, M. Ishida, T. Nakajima, 
 Y. Honda, O. Kitao, H. Nakai, T. Vreven, J. A. Montgomery, Jr., 
 J. E. Peralta, F. Ogliaro, M. Bearpark, J. J. Heyd, E. Brothers, 
 K. N. Kudin, V. N. Staroverov, T. Keith, R. Kobayashi, J. Normand, 
 K. Raghavachari, A. Rendell, J. C. Burant, S. S. Iyengar, J. Tomasi, 
 M. Cossi, N. Rega, J. M. Millam, M. Klene, J. E. Knox, J. B. Cross, 
 V. Bakken, C. Adamo, J. Jaramillo, R. Gomperts, R. E. Stratmann, 
 O. Yazyev, A. J. Austin, R. Cammi, C. Pomelli, J. W. Ochterski, 
 R. L. Martin, K. Morokuma, V. G. Zakrzewski, G. A. Voth, 
 P. Salvador, J. J. Dannenberg, S. Dapprich, A. D. Daniels, 
 O. Farkas, J. B. Foresman, J. V. Ortiz, J. Cioslowski, 
 and D. J. Fox, Gaussian, Inc., Wallingford CT, 2013.
 
 ******************************************
 Gaussian 09:  ES64L-G09RevD.01 24-Apr-2013
                12-Mar-2020 
 ******************************************
 --------------
 #p M062X/6-31G
 --------------
 1/38=1/1;
 2/12=2,17=6,18=5,40=1/2;
 3/5=1,6=6,11=2,16=1,25=1,30=1,74=-55/1,2,3;
 4//1;
 5/5=2,38=5/2;
 6/7=2,8=2,9=2,10=2,28=1/1;
 99/5=1,9=1/99;
 Leave Link    1 at Thu Mar 12 19:36:53 2020, MaxMem=           0 cpu:         0.0
 (Enter /usr/local/gaussian09d01/g09/l101.exe)
 --------
 chk calc
 --------
 Symbolic Z-matrix:
 Charge =  1 Multiplicity = 1
 C                     3.82448  -1.1422    1.17225 
 H                     4.79911  -1.62961   1.17381 
 H                     3.05361  -1.91631   1.1608 
 H                    -2.72362  -3.54098  -0.50952 
 H                     3.75961  -0.53292   2.07825 
 H                     3.76532  -0.52154   0.27395 
 C                    -2.40154  -0.7055    0.49256 
 C                    -1.33366   0.19321   1.14127 
 C                     0.02197  -0.47034   0.95019 
 N                    -1.3033    1.52915   0.51595 
 O                     0.15593  -1.61146   0.51692 
 O                     1.02492   0.35339   1.29866 
 C                    -2.12189  -0.91834  -0.96711 
 H                    -3.3923   -0.2474    0.5965 
 H                    -2.41918  -1.6699    1.00444 
 H                    -1.5263    0.23947   2.22139 
 H                    -1.5039    0.96075  -1.1704 
 H                    -0.41056   1.99753   0.66615 
 H                     1.9244   -0.03993   1.23082 
 N                    -1.70046   0.06924  -1.69492 
 O                    -2.33685  -2.07165  -1.57518 
 H                    -2.0719    2.12856   0.80783 
 H                    -1.51441  -0.05451  -2.68524 
 
 NAtoms=     23 NQM=       23 NQMF=       0 NMMI=      0 NMMIF=      0
                NMic=       0 NMicF=      0.
                    Isotopes and Nuclear Properties:
 (Nuclear quadrupole moments (NQMom) in fm**2, nuclear magnetic moments (NMagM)
  in nuclear magnetons)

  Atom         1           2           3           4           5           6           7           8           9          10
 IAtWgt=          12           1           1           1           1           1          12          12          12          14
 AtmWgt=  12.0000000   1.0078250   1.0078250   1.0078250   1.0078250   1.0078250  12.0000000  12.0000000  12.0000000  14.0030740
 NucSpn=           0           1           1           1           1           1           0           0           0           2
 AtZEff=   0.0000000   0.0000000   0.0000000   0.0000000   0.0000000   0.0000000   0.0000000   0.0000000   0.0000000   0.0000000
 NQMom=    0.0000000   0.0000000   0.0000000   0.0000000   0.0000000   0.0000000   0.0000000   0.0000000   0.0000000   2.0440000
 NMagM=    0.0000000   2.7928460   2.7928460   2.7928460   2.7928460   2.7928460   0.0000000   0.0000000   0.0000000   0.4037610
 AtZNuc=   6.0000000   1.0000000   1.0000000   1.0000000   1.0000000   1.0000000   6.0000000   6.0000000   6.0000000   7.0000000

  Atom        11          12          13          14          15          16          17          18          19          20
 IAtWgt=          16          16          12           1           1           1           1           1           1          14
 AtmWgt=  15.9949146  15.9949146  12.0000000   1.0078250   1.0078250   1.0078250   1.0078250   1.0078250   1.0078250  14.0030740
 NucSpn=           0           0           0           1           1           1           1           1           1           2
 AtZEff=   0.0000000   0.0000000   0.0000000   0.0000000   0.0000000   0.0000000   0.0000000   0.0000000   0.0000000   0.0000000
 NQMom=    0.0000000   0.0000000   0.0000000   0.0000000   0.0000000   0.0000000   0.0000000   0.0000000   0.0000000   2.0440000
 NMagM=    0.0000000   0.0000000   0.0000000   2.7928460   2.7928460   2.7928460   2.7928460   2.7928460   2.7928460   0.4037610
 AtZNuc=   8.0000000   8.0000000   6.0000000   1.0000000   1.0000000   1.0000000   1.0000000   1.0000000   1.0000000   7.0000000

  Atom        21          22          23
 IAtWgt=          16           1           1
 AtmWgt=  15.9949146   1.0078250   1.0078250
 NucSpn=           0           1           1
 AtZEff=   0.0000000   0.0000000   0.0000000
 NQMom=    0.0000000   0.0000000   0.0000000
 NMagM=    0.0000000   2.7928460   2.7928460
 AtZNuc=   8.0000000   1.0000000   1.0000000
 Leave Link  101 at Thu Mar 12 19:36:53 2020, MaxMem=    33554432 cpu:         0.0
 (Enter /usr/local/gaussian09d01/g09/l202.exe)
                          Input orientation:                          
 ---------------------------------------------------------------------
 Center     Atomic      Atomic             Coordinates (Angstroms)
 Number     Number       Type             X           Y           Z
 ---------------------------------------------------------------------
      1          6           0        3.824483   -1.142195    1.172254
      2          1           0        4.799113   -1.629614    1.173809
      3          1           0        3.053614   -1.916313    1.160805
      4          1           0       -2.723621   -3.540979   -0.509516
      5          1           0        3.759606   -0.532918    2.078246
      6          1           0        3.765324   -0.521541    0.273951
      7          6           0       -2.401542   -0.705499    0.492563
      8          6           0       -1.333656    0.193207    1.141271
      9          6           0        0.021967   -0.470338    0.950187
     10          7           0       -1.303305    1.529149    0.515945
     11          8           0        0.155929   -1.611463    0.516920
     12          8           0        1.024922    0.353393    1.298656
     13          6           0       -2.121889   -0.918337   -0.967113
     14          1           0       -3.392299   -0.247402    0.596497
     15          1           0       -2.419177   -1.669900    1.004436
     16          1           0       -1.526304    0.239474    2.221388
     17          1           0       -1.503902    0.960751   -1.170400
     18          1           0       -0.410560    1.997532    0.666151
     19          1           0        1.924402   -0.039926    1.230819
     20          7           0       -1.700457    0.069239   -1.694920
     21          8           0       -2.336855   -2.071648   -1.575178
     22          1           0       -2.071901    2.128557    0.807834
     23          1           0       -1.514409   -0.054511   -2.685236
 ---------------------------------------------------------------------
                    Distance matrix (angstroms):
                    1          2          3          4          5
     1  C    0.000000
     2  H    1.089717   0.000000
     3  H    1.092532   1.768935   0.000000
     4  H    7.173575   7.942193   6.229443   0.000000
     5  H    1.093732   1.761058   1.803858   7.601131   0.000000
     6  H    1.093462   1.762467   1.799563   7.199808   1.804340
     7  C    6.278222   7.291606   5.627730   3.024540   6.364270
     8  C    5.328288   6.398015   4.868120   4.312916   5.229388
     9  C    3.867794   4.920879   3.365425   4.370106   3.904662
    10  N    5.819023   6.902903   5.591940   5.364240   5.685594
    11  O    3.756056   4.689455   2.983974   3.615026   4.072774
    12  O    3.176523   4.265257   3.047319   5.699754   2.978557
    13  C    6.323476   7.279405   5.684173   2.729419   6.634362
    14  H    7.294799   8.327247   6.682328   3.538085   7.309368
    15  H    6.268167   7.220389   5.480567   2.426041   6.373630
    16  H    5.624999   6.678459   5.171838   4.814897   5.343962
    17  H    6.188869   7.206477   5.872220   4.710632   6.363118
    18  H    5.296189   6.368250   5.250083   6.116172   5.078138
    19  H    2.197438   3.285472   2.191084   6.073736   2.080661
    20  N    6.341389   7.304801   5.890567   3.935190   6.664208
    21  O    6.809871   7.659919   6.047056   1.855844   7.272004
    22  H    6.752626   7.840192   6.538842   5.856944   6.534820
    23  H    6.675855   7.565298   6.255011   4.283855   7.122841
                    6          7          8          9         10
     6  H    0.000000
     7  C    6.173481   0.000000
     8  C    5.221370   1.539115   0.000000
     9  C    3.804292   2.477522   1.521354   0.000000
    10  N    5.473106   2.490045   1.475362   2.437797   0.000000
    11  O    3.778186   2.713305   2.421882   1.227938   3.463063
    12  O    3.053740   3.675826   2.369245   1.343831   2.723175
    13  C    6.029674   1.501385   2.510403   2.910818   2.976530
    14  H    7.170129   1.096474   2.174610   3.439769   2.743450
    15  H    6.332486   1.091969   2.160613   2.720492   3.423114
    16  H    5.689726   2.155888   1.098138   2.125307   2.149773
    17  H    5.661103   2.519443   2.441706   2.978788   1.790831
    18  H    4.892602   3.361625   2.081690   2.521535   1.019283
    19  H    2.129916   4.438671   3.267616   1.970601   3.659389
    20  N    5.839541   2.424215   2.862497   3.202261   2.678990
    21  O    6.561912   2.479133   3.676285   3.808636   4.290310
    22  H    6.432825   2.870528   2.098038   3.340478   1.017462
    23  H    6.070459   3.362914   3.838774   3.968584   3.577723
                   11         12         13         14         15
    11  O    0.000000
    12  O    2.286245   0.000000
    13  C    2.805572   4.080861   0.000000
    14  H    3.802225   4.512852   2.123434   0.000000
    15  H    2.621499   4.005259   2.130782   1.771124   0.000000
    16  H    3.026729   2.715358   3.444094   2.521757   2.433907
    17  H    3.495479   3.586095   1.988519   2.854401   3.533832
    18  H    3.656231   2.272415   3.754796   3.733008   4.195121
    19  H    2.471210   0.984055   4.687748   5.358426   4.644862
    20  N    3.341132   4.058317   1.297157   2.865865   3.290545
    21  O    3.286734   5.043936   1.321393   3.026220   2.612009
    22  H    4.362981   3.603113   3.526542   2.726407   3.819362
    23  H    3.932929   4.741938   2.016724   3.785954   4.128168
                   16         17         18         19         20
    16  H    0.000000
    17  H    3.467704   0.000000
    18  H    2.598926   2.375549   0.000000
    19  H    3.600926   4.303542   3.149942   0.000000
    20  N    3.923872   1.052876   3.310106   4.659557   0.000000
    21  O    4.517986   3.170662   5.029155   5.491796   2.236680
    22  H    2.421661   2.366391   1.672511   4.566362   3.262290
    23  H    4.915437   1.823621   4.081808   5.211632   1.015211
                   21         22         23
    21  O    0.000000
    22  H    4.836390   0.000000
    23  H    2.444890   4.156696   0.000000
 Stoichiometry    C5H13N2O3(1+)
 Framework group  C1[X(C5H13N2O3)]
 Deg. of freedom    63
 Full point group                 C1      NOp   1
 Largest Abelian subgroup         C1      NOp   1
 Largest concise Abelian subgroup C1      NOp   1
                         Standard orientation:                         
 ---------------------------------------------------------------------
 Center     Atomic      Atomic             Coordinates (Angstroms)
 Number     Number       Type             X           Y           Z
 ---------------------------------------------------------------------
      1          6           0       -4.367637   -0.941131    0.337601
      2          1           0       -5.270466   -1.544184    0.430933
      3          1           0       -3.648099   -1.492530   -0.272195
      4          1           0        2.335172   -2.625150   -1.585058
      5          1           0       -4.649468    0.001958   -0.139269
      6          1           0       -3.975502   -0.772812    1.344357
      7          6           0        1.655586    0.256553   -0.967161
      8          6           0        0.420796    1.141965   -0.721773
      9          6           0       -0.762224    0.231950   -0.427065
     10          7           0        0.626242    2.044533    0.427077
     11          8           0       -0.721628   -0.987684   -0.563738
     12          8           0       -1.823723    0.932282    0.007259
     13          6           0        1.946341   -0.615211    0.220124
     14          1           0        2.533682    0.882408   -1.165927
     15          1           0        1.480555   -0.369498   -1.844555
     16          1           0        0.192566    1.686293   -1.647800
     17          1           0        1.447743    0.845766    1.473580
     18          1           0       -0.258019    2.364575    0.820261
     19          1           0       -2.630937    0.395540    0.176607
     20          7           0        1.828546   -0.134319    1.419075
     21          8           0        2.376017   -1.859478    0.104982
     22          1           0        1.227565    2.837299    0.214565
     23          1           0        2.029191   -0.706878    2.233059
 ---------------------------------------------------------------------
 Rotational constants (GHZ):      1.7788843      0.7155235      0.6050726
 Leave Link  202 at Thu Mar 12 19:36:53 2020, MaxMem=    33554432 cpu:         0.0
 (Enter /usr/local/gaussian09d01/g09/l301.exe)
 Standard basis: 6-31G (6D, 7F)
 Ernie: Thresh=  0.10000D-02 Tol=  0.10000D-05 Strict=F.
 There are   116 symmetry adapted cartesian basis functions of A   symmetry.
 There are   116 symmetry adapted basis functions of A   symmetry.
   116 basis functions,   272 primitive gaussians,   116 cartesian basis functions
    40 alpha electrons       40 beta electrons
       nuclear repulsion energy       583.1688540286 Hartrees.
 IExCor= 4336 DFT=T Ex+Corr=M062X ExCW=0 ScaHFX=  0.540000
 ScaDFX=  1.000000  1.000000  1.000000  1.000000 ScalE2=  1.000000  1.000000
 IRadAn=      0 IRanWt=     -1 IRanGd=            0 ICorTp=0 IEmpDi=  4
 NAtoms=   23 NActive=   23 NUniq=   23 SFac= 1.00D+00 NAtFMM=   60 NAOKFM=F Big=F
 Integral buffers will be    131072 words long.
 Raffenetti 2 integral format.
 Two-electron integral symmetry is turned on.
 Leave Link  301 at Thu Mar 12 19:36:53 2020, MaxMem=    33554432 cpu:         0.0
 (Enter /usr/local/gaussian09d01/g09/l302.exe)
 NPDir=0 NMtPBC=     1 NCelOv=     1 NCel=       1 NClECP=     1 NCelD=      1
         NCelK=      1 NCelE2=     1 NClLst=     1 CellRange=     0.0.
 One-electron integrals computed using PRISM.
 NBasis=   116 RedAO= T EigKep=  3.57D-03  NBF=   116
 NBsUse=   116 1.00D-06 EigRej= -1.00D+00 NBFU=   116
 Precomputing XC quadrature grid using
 IXCGrd= 4 IRadAn=           0 IRanWt=          -1 IRanGd=           0 AccXCQ= 0.00D+00.
 Generated NRdTot=       0 NPtTot=           0 NUsed=           0 NTot=          32
 NSgBfM=   115   115   115   115   115 MxSgAt=    23 MxSgA2=    23.
 Leave Link  302 at Thu Mar 12 19:36:54 2020, MaxMem=    33554432 cpu:         0.3
 (Enter /usr/local/gaussian09d01/g09/l303.exe)
 DipDrv:  MaxL=1.
 Leave Link  303 at Thu Mar 12 19:36:54 2020, MaxMem=    33554432 cpu:         0.0
 (Enter /usr/local/gaussian09d01/g09/l401.exe)
 ExpMin= 1.61D-01 ExpMax= 5.48D+03 ExpMxC= 8.25D+02 IAcc=1 IRadAn=         1 AccDes= 0.00D+00
 Harris functional with IExCor= 1009 and IRadAn=       1 diagonalized for initial guess.
 HarFok:  IExCor= 1009 AccDes= 0.00D+00 IRadAn=         1 IDoV= 1 UseB2=F ITyADJ=14
 ICtDFT=  3500011 ScaDFX=  1.000000  1.000000  1.000000  1.000000
 FoFCou: FMM=F IPFlag=           0 FMFlag=      100000 FMFlg1=           0
         NFxFlg=           0 DoJE=T BraDBF=F KetDBF=T FulRan=T
         wScrn=  0.000000 ICntrl=     500 IOpCl=  0 I1Cent=   200000004 NGrid=           0
         NMat0=    1 NMatS0=      1 NMatT0=    0 NMatD0=    1 NMtDS0=    0 NMtDT0=    0
 Petite list used in FoFCou.
 Harris En= -532.632309559891    
 JPrj=0 DoOrth=F DoCkMO=F.
 Leave Link  401 at Thu Mar 12 19:36:55 2020, MaxMem=    33554432 cpu:         0.8
 (Enter /usr/local/gaussian09d01/g09/l502.exe)
 Closed shell SCF:
 Using DIIS extrapolation, IDIIS=  1040.
 Integral symmetry usage will be decided dynamically.
 Keep R1 ints in memory in canonical form, NReq=24030401.
 IVT=       60528 IEndB=       60528 NGot=    33554432 MDV=    10465614
 LenX=    10465614 LenY=    10451717
 Requested convergence on RMS density matrix=1.00D-08 within 128 cycles.
 Requested convergence on MAX density matrix=1.00D-06.
 Requested convergence on             energy=1.00D-06.
 No special actions if energy rises.
 FoFCou: FMM=F IPFlag=           0 FMFlag=           0 FMFlg1=           0
         NFxFlg=           0 DoJE=F BraDBF=F KetDBF=F FulRan=T
         wScrn=  0.000000 ICntrl=     600 IOpCl=  0 I1Cent=           0 NGrid=           0
         NMat0=    1 NMatS0=   6786 NMatT0=    0 NMatD0=    1 NMtDS0=    0 NMtDT0=    0
 Symmetry not used in FoFCou.
 Integral accuracy reduced to 1.0D-05 until final iterations.

 Cycle   1  Pass 0  IDiag  1:
 E= -532.455121301314    
 DIIS: error= 5.06D-02 at cycle   1 NSaved=   1.
 NSaved= 1 IEnMin= 1 EnMin= -532.455121301314     IErMin= 1 ErrMin= 5.06D-02
 ErrMax= 5.06D-02  0.00D+00 EMaxC= 1.00D-01 BMatC= 3.40D-01 BMatP= 3.40D-01
 IDIUse=3 WtCom= 4.94D-01 WtEn= 5.06D-01
 Coeff-Com:  0.100D+01
 Coeff-En:   0.100D+01
 Coeff:      0.100D+01
 Gap=     0.040 Goal=   None    Shift=    0.000
 GapD=    0.040 DampG=0.250 DampE=0.500 DampFc=0.2500 IDamp=-1.
 Damping current iteration by 2.50D-01
 RMSDP=9.50D-03 MaxDP=2.34D-01              OVMax= 3.93D-01

 Cycle   2  Pass 0  IDiag  1:
 E= -532.565010827379     Delta-E=       -0.109889526065 Rises=F Damp=T
 DIIS: error= 2.75D-02 at cycle   2 NSaved=   2.
 NSaved= 2 IEnMin= 2 EnMin= -532.565010827379     IErMin= 2 ErrMin= 2.75D-02
 ErrMax= 2.75D-02  0.00D+00 EMaxC= 1.00D-01 BMatC= 8.58D-02 BMatP= 3.40D-01
 IDIUse=3 WtCom= 7.25D-01 WtEn= 2.75D-01
 Coeff-Com: -0.742D+00 0.174D+01
 Coeff-En:   0.000D+00 0.100D+01
 Coeff:     -0.537D+00 0.154D+01
 Gap=     0.128 Goal=   None    Shift=    0.000
 RMSDP=3.25D-03 MaxDP=6.19D-02 DE=-1.10D-01 OVMax= 2.16D-01

 Cycle   3  Pass 0  IDiag  1:
 E= -532.740872407727     Delta-E=       -0.175861580349 Rises=F Damp=F
 DIIS: error= 1.41D-02 at cycle   3 NSaved=   3.
 NSaved= 3 IEnMin= 3 EnMin= -532.740872407727     IErMin= 3 ErrMin= 1.41D-02
 ErrMax= 1.41D-02  0.00D+00 EMaxC= 1.00D-01 BMatC= 2.97D-02 BMatP= 8.58D-02
 IDIUse=3 WtCom= 8.59D-01 WtEn= 1.41D-01
 Coeff-Com: -0.349D+00 0.849D+00 0.501D+00
 Coeff-En:   0.000D+00 0.000D+00 0.100D+01
 Coeff:     -0.300D+00 0.729D+00 0.571D+00
 Gap=     0.180 Goal=   None    Shift=    0.000
 RMSDP=1.62D-03 MaxDP=5.10D-02 DE=-1.76D-01 OVMax= 7.43D-02

 Cycle   4  Pass 0  IDiag  1:
 E= -532.762371987651     Delta-E=       -0.021499579924 Rises=F Damp=F
 DIIS: error= 8.78D-03 at cycle   4 NSaved=   4.
 NSaved= 4 IEnMin= 4 EnMin= -532.762371987651     IErMin= 4 ErrMin= 8.78D-03
 ErrMax= 8.78D-03  0.00D+00 EMaxC= 1.00D-01 BMatC= 6.56D-03 BMatP= 2.97D-02
 IDIUse=3 WtCom= 9.12D-01 WtEn= 8.78D-02
 Coeff-Com:  0.829D-02 0.338D-01 0.318D+00 0.640D+00
 Coeff-En:   0.000D+00 0.000D+00 0.167D+00 0.833D+00
 Coeff:      0.757D-02 0.308D-01 0.304D+00 0.657D+00
 Gap=     0.173 Goal=   None    Shift=    0.000
 RMSDP=6.11D-04 MaxDP=1.84D-02 DE=-2.15D-02 OVMax= 2.61D-02

 Cycle   5  Pass 0  IDiag  1:
 E= -532.767286161682     Delta-E=       -0.004914174031 Rises=F Damp=F
 DIIS: error= 1.98D-03 at cycle   5 NSaved=   5.
 NSaved= 5 IEnMin= 5 EnMin= -532.767286161682     IErMin= 5 ErrMin= 1.98D-03
 ErrMax= 1.98D-03  0.00D+00 EMaxC= 1.00D-01 BMatC= 6.43D-04 BMatP= 6.56D-03
 IDIUse=3 WtCom= 9.80D-01 WtEn= 1.98D-02
 Coeff-Com:  0.402D-01-0.613D-01 0.138D+00 0.388D+00 0.495D+00
 Coeff-En:   0.000D+00 0.000D+00 0.000D+00 0.000D+00 0.100D+01
 Coeff:      0.394D-01-0.601D-01 0.135D+00 0.380D+00 0.505D+00
 Gap=     0.175 Goal=   None    Shift=    0.000
 RMSDP=2.19D-04 MaxDP=4.89D-03 DE=-4.91D-03 OVMax= 6.95D-03

 Cycle   6  Pass 0  IDiag  1:
 E= -532.767792982866     Delta-E=       -0.000506821184 Rises=F Damp=F
 DIIS: error= 5.81D-04 at cycle   6 NSaved=   6.
 NSaved= 6 IEnMin= 6 EnMin= -532.767792982866     IErMin= 6 ErrMin= 5.81D-04
 ErrMax= 5.81D-04  0.00D+00 EMaxC= 1.00D-01 BMatC= 3.83D-05 BMatP= 6.43D-04
 IDIUse=3 WtCom= 9.94D-01 WtEn= 5.81D-03
 Coeff-Com:  0.228D-01-0.360D-01 0.517D-01 0.139D+00 0.242D+00 0.580D+00
 Coeff-En:   0.000D+00 0.000D+00 0.000D+00 0.000D+00 0.000D+00 0.100D+01
 Coeff:      0.227D-01-0.358D-01 0.514D-01 0.138D+00 0.241D+00 0.583D+00
 Gap=     0.177 Goal=   None    Shift=    0.000
 RMSDP=5.68D-05 MaxDP=1.23D-03 DE=-5.07D-04 OVMax= 1.81D-03

 Cycle   7  Pass 0  IDiag  1:
 E= -532.767826497012     Delta-E=       -0.000033514146 Rises=F Damp=F
 DIIS: error= 3.15D-04 at cycle   7 NSaved=   7.
 NSaved= 7 IEnMin= 7 EnMin= -532.767826497012     IErMin= 7 ErrMin= 3.15D-04
 ErrMax= 3.15D-04  0.00D+00 EMaxC= 1.00D-01 BMatC= 5.75D-06 BMatP= 3.83D-05
 IDIUse=3 WtCom= 9.97D-01 WtEn= 3.15D-03
 Coeff-Com:  0.274D-02-0.401D-02-0.857D-02-0.387D-01-0.297D-01 0.260D+00
 Coeff-Com:  0.818D+00
 Coeff-En:   0.000D+00 0.000D+00 0.000D+00 0.000D+00 0.000D+00 0.000D+00
 Coeff-En:   0.100D+01
 Coeff:      0.273D-02-0.400D-02-0.854D-02-0.386D-01-0.296D-01 0.259D+00
 Coeff:      0.819D+00
 Gap=     0.177 Goal=   None    Shift=    0.000
 RMSDP=3.27D-05 MaxDP=4.77D-04 DE=-3.35D-05 OVMax= 1.04D-03

 Cycle   8  Pass 0  IDiag  1:
 E= -532.767832725713     Delta-E=       -0.000006228701 Rises=F Damp=F
 DIIS: error= 3.11D-05 at cycle   8 NSaved=   8.
 NSaved= 8 IEnMin= 8 EnMin= -532.767832725713     IErMin= 8 ErrMin= 3.11D-05
 ErrMax= 3.11D-05  0.00D+00 EMaxC= 1.00D-01 BMatC= 2.56D-07 BMatP= 5.75D-06
 IDIUse=1 WtCom= 1.00D+00 WtEn= 0.00D+00
 Coeff-Com: -0.979D-03 0.155D-02-0.706D-02-0.235D-01-0.333D-01 0.415D-01
 Coeff-Com:  0.250D+00 0.772D+00
 Coeff:     -0.979D-03 0.155D-02-0.706D-02-0.235D-01-0.333D-01 0.415D-01
 Coeff:      0.250D+00 0.772D+00
 Gap=     0.177 Goal=   None    Shift=    0.000
 RMSDP=8.78D-06 MaxDP=1.22D-04 DE=-6.23D-06 OVMax= 3.48D-04

 Initial convergence to 1.0D-05 achieved.  Increase integral accuracy.
 Cycle   9  Pass 1  IDiag  1:
 E= -532.768095075365     Delta-E=       -0.000262349652 Rises=F Damp=F
 DIIS: error= 9.76D-05 at cycle   1 NSaved=   1.
 NSaved= 1 IEnMin= 1 EnMin= -532.768095075365     IErMin= 1 ErrMin= 9.76D-05
 ErrMax= 9.76D-05  0.00D+00 EMaxC= 1.00D-01 BMatC= 1.79D-06 BMatP= 1.79D-06
 IDIUse=1 WtCom= 1.00D+00 WtEn= 0.00D+00
 Coeff-Com:  0.100D+01
 Coeff:      0.100D+01
 Gap=     0.178 Goal=   None    Shift=    0.000
 RMSDP=8.78D-06 MaxDP=1.22D-04 DE=-2.62D-04 OVMax= 2.55D-04

 Cycle  10  Pass 1  IDiag  1:
 E= -532.768096683082     Delta-E=       -0.000001607718 Rises=F Damp=F
 DIIS: error= 6.13D-05 at cycle   2 NSaved=   2.
 NSaved= 2 IEnMin= 2 EnMin= -532.768096683082     IErMin= 2 ErrMin= 6.13D-05
 ErrMax= 6.13D-05  0.00D+00 EMaxC= 1.00D-01 BMatC= 5.06D-07 BMatP= 1.79D-06
 IDIUse=1 WtCom= 1.00D+00 WtEn= 0.00D+00
 Coeff-Com:  0.284D+00 0.716D+00
 Coeff:      0.284D+00 0.716D+00
 Gap=     0.177 Goal=   None    Shift=    0.000
 RMSDP=8.94D-06 MaxDP=1.71D-04 DE=-1.61D-06 OVMax= 2.10D-04

 Cycle  11  Pass 1  IDiag  1:
 E= -532.768096949817     Delta-E=       -0.000000266735 Rises=F Damp=F
 DIIS: error= 5.01D-05 at cycle   3 NSaved=   3.
 NSaved= 3 IEnMin= 3 EnMin= -532.768096949817     IErMin= 3 ErrMin= 5.01D-05
 ErrMax= 5.01D-05  0.00D+00 EMaxC= 1.00D-01 BMatC= 2.78D-07 BMatP= 5.06D-07
 IDIUse=1 WtCom= 1.00D+00 WtEn= 0.00D+00
 Coeff-Com:  0.175D-03 0.419D+00 0.581D+00
 Coeff:      0.175D-03 0.419D+00 0.581D+00
 Gap=     0.177 Goal=   None    Shift=    0.000
 RMSDP=4.77D-06 MaxDP=1.72D-04 DE=-2.67D-07 OVMax= 2.60D-04

 Cycle  12  Pass 1  IDiag  1:
 E= -532.768097141066     Delta-E=       -0.000000191249 Rises=F Damp=F
 DIIS: error= 2.61D-05 at cycle   4 NSaved=   4.
 NSaved= 4 IEnMin= 4 EnMin= -532.768097141066     IErMin= 4 ErrMin= 2.61D-05
 ErrMax= 2.61D-05  0.00D+00 EMaxC= 1.00D-01 BMatC= 5.30D-08 BMatP= 2.78D-07
 IDIUse=1 WtCom= 1.00D+00 WtEn= 0.00D+00
 Coeff-Com: -0.382D-01 0.181D+00 0.378D+00 0.480D+00
 Coeff:     -0.382D-01 0.181D+00 0.378D+00 0.480D+00
 Gap=     0.177 Goal=   None    Shift=    0.000
 RMSDP=1.67D-06 MaxDP=5.76D-05 DE=-1.91D-07 OVMax= 9.06D-05

 Cycle  13  Pass 1  IDiag  1:
 E= -532.768097190189     Delta-E=       -0.000000049123 Rises=F Damp=F
 DIIS: error= 2.70D-06 at cycle   5 NSaved=   5.
 NSaved= 5 IEnMin= 5 EnMin= -532.768097190189     IErMin= 5 ErrMin= 2.70D-06
 ErrMax= 2.70D-06  0.00D+00 EMaxC= 1.00D-01 BMatC= 6.66D-10 BMatP= 5.30D-08
 IDIUse=1 WtCom= 1.00D+00 WtEn= 0.00D+00
 Coeff-Com: -0.896D-02 0.151D-01 0.478D-01 0.109D+00 0.837D+00
 Coeff:     -0.896D-02 0.151D-01 0.478D-01 0.109D+00 0.837D+00
 Gap=     0.177 Goal=   None    Shift=    0.000
 RMSDP=4.45D-07 MaxDP=9.53D-06 DE=-4.91D-08 OVMax= 1.79D-05

 Cycle  14  Pass 1  IDiag  1:
 E= -532.768097191504     Delta-E=       -0.000000001315 Rises=F Damp=F
 DIIS: error= 1.49D-06 at cycle   6 NSaved=   6.
 NSaved= 6 IEnMin= 6 EnMin= -532.768097191504     IErMin= 6 ErrMin= 1.49D-06
 ErrMax= 1.49D-06  0.00D+00 EMaxC= 1.00D-01 BMatC= 2.74D-10 BMatP= 6.66D-10
 IDIUse=1 WtCom= 1.00D+00 WtEn= 0.00D+00
 Coeff-Com:  0.361D-02-0.282D-01-0.512D-01-0.446D-01 0.416D+00 0.704D+00
 Coeff:      0.361D-02-0.282D-01-0.512D-01-0.446D-01 0.416D+00 0.704D+00
 Gap=     0.177 Goal=   None    Shift=    0.000
 RMSDP=2.52D-07 MaxDP=4.21D-06 DE=-1.31D-09 OVMax= 1.21D-05

 Cycle  15  Pass 1  IDiag  1:
 E= -532.768097192045     Delta-E=       -0.000000000541 Rises=F Damp=F
 DIIS: error= 9.65D-07 at cycle   7 NSaved=   7.
 NSaved= 7 IEnMin= 7 EnMin= -532.768097192045     IErMin= 7 ErrMin= 9.65D-07
 ErrMax= 9.65D-07  0.00D+00 EMaxC= 1.00D-01 BMatC= 1.73D-11 BMatP= 2.74D-10
 IDIUse=1 WtCom= 1.00D+00 WtEn= 0.00D+00
 Coeff-Com:  0.962D-03-0.168D-02-0.416D-02-0.172D-01-0.109D+00-0.206D-01
 Coeff-Com:  0.115D+01
 Coeff:      0.962D-03-0.168D-02-0.416D-02-0.172D-01-0.109D+00-0.206D-01
 Coeff:      0.115D+01
 Gap=     0.177 Goal=   None    Shift=    0.000
 RMSDP=1.65D-07 MaxDP=3.92D-06 DE=-5.41D-10 OVMax= 1.01D-05

 Cycle  16  Pass 1  IDiag  1:
 E= -532.768097192188     Delta-E=       -0.000000000142 Rises=F Damp=F
 DIIS: error= 4.60D-07 at cycle   8 NSaved=   8.
 NSaved= 8 IEnMin= 8 EnMin= -532.768097192188     IErMin= 8 ErrMin= 4.60D-07
 ErrMax= 4.60D-07  0.00D+00 EMaxC= 1.00D-01 BMatC= 7.12D-12 BMatP= 1.73D-11
 IDIUse=1 WtCom= 1.00D+00 WtEn= 0.00D+00
 Coeff-Com: -0.231D-03 0.438D-02 0.770D-02 0.278D-03-0.127D+00-0.135D+00
 Coeff-Com:  0.543D+00 0.706D+00
 Coeff:     -0.231D-03 0.438D-02 0.770D-02 0.278D-03-0.127D+00-0.135D+00
 Coeff:      0.543D+00 0.706D+00
 Gap=     0.177 Goal=   None    Shift=    0.000
 RMSDP=6.63D-08 MaxDP=1.70D-06 DE=-1.42D-10 OVMax= 4.22D-06

 Cycle  17  Pass 1  IDiag  1:
 E= -532.768097192225     Delta-E=       -0.000000000037 Rises=F Damp=F
 DIIS: error= 2.46D-07 at cycle   9 NSaved=   9.
 NSaved= 9 IEnMin= 9 EnMin= -532.768097192225     IErMin= 9 ErrMin= 2.46D-07
 ErrMax= 2.46D-07  0.00D+00 EMaxC= 1.00D-01 BMatC= 1.67D-12 BMatP= 7.12D-12
 IDIUse=1 WtCom= 1.00D+00 WtEn= 0.00D+00
 Coeff-Com: -0.282D-03 0.192D-02 0.376D-02 0.439D-02-0.188D-01-0.450D-01
 Coeff-Com: -0.100D+00 0.307D+00 0.847D+00
 Coeff:     -0.282D-03 0.192D-02 0.376D-02 0.439D-02-0.188D-01-0.450D-01
 Coeff:     -0.100D+00 0.307D+00 0.847D+00
 Gap=     0.177 Goal=   None    Shift=    0.000
 RMSDP=4.06D-08 MaxDP=1.11D-06 DE=-3.73D-11 OVMax= 2.64D-06

 Cycle  18  Pass 1  IDiag  1:
 E= -532.768097192227     Delta-E=       -0.000000000002 Rises=F Damp=F
 DIIS: error= 1.05D-07 at cycle  10 NSaved=  10.
 NSaved=10 IEnMin=10 EnMin= -532.768097192227     IErMin=10 ErrMin= 1.05D-07
 ErrMax= 1.05D-07  0.00D+00 EMaxC= 1.00D-01 BMatC= 5.47D-13 BMatP= 1.67D-12
 IDIUse=1 WtCom= 1.00D+00 WtEn= 0.00D+00
 Coeff-Com: -0.170D-03 0.410D-03 0.103D-02 0.280D-02 0.135D-01-0.177D-02
 Coeff-Com: -0.171D+00 0.975D-02 0.469D+00 0.676D+00
 Coeff:     -0.170D-03 0.410D-03 0.103D-02 0.280D-02 0.135D-01-0.177D-02
 Coeff:     -0.171D+00 0.975D-02 0.469D+00 0.676D+00
 Gap=     0.177 Goal=   None    Shift=    0.000
 RMSDP=1.81D-08 MaxDP=5.44D-07 DE=-2.27D-12 OVMax= 1.25D-06

 Cycle  19  Pass 1  IDiag  1:
 E= -532.768097192219     Delta-E=        0.000000000008 Rises=F Damp=F
 DIIS: error= 3.99D-08 at cycle  11 NSaved=  11.
 NSaved=11 IEnMin=10 EnMin= -532.768097192227     IErMin=11 ErrMin= 3.99D-08
 ErrMax= 3.99D-08  0.00D+00 EMaxC= 1.00D-01 BMatC= 5.76D-14 BMatP= 5.47D-13
 IDIUse=1 WtCom= 1.00D+00 WtEn= 0.00D+00
 Coeff-Com:  0.343D-04-0.411D-03-0.758D-03-0.455D-03 0.912D-02 0.114D-01
 Coeff-Com: -0.197D-01-0.769D-01-0.877D-01 0.181D+00 0.985D+00
 Coeff:      0.343D-04-0.411D-03-0.758D-03-0.455D-03 0.912D-02 0.114D-01
 Coeff:     -0.197D-01-0.769D-01-0.877D-01 0.181D+00 0.985D+00
 Gap=     0.177 Goal=   None    Shift=    0.000
 RMSDP=8.64D-09 MaxDP=2.71D-07 DE= 7.73D-12 OVMax= 5.71D-07

 SCF Done:  E(RM062X) =  -532.768097192     A.U. after   19 cycles
            NFock= 19  Conv=0.86D-08     -V/T= 2.0061
 KE= 5.295369577095D+02 PE=-2.398861722397D+03 EE= 7.533878134667D+02
 Leave Link  502 at Thu Mar 12 19:37:59 2020, MaxMem=    33554432 cpu:        64.0
 (Enter /usr/local/gaussian09d01/g09/l601.exe)
 Copying SCF densities to generalized density rwf, IOpCl= 0 IROHF=0.

 **********************************************************************

            Population analysis using the SCF density.

 **********************************************************************

 Orbital symmetries:
       Occupied  (A) (A) (A) (A) (A) (A) (A) (A) (A) (A) (A) (A)
                 (A) (A) (A) (A) (A) (A) (A) (A) (A) (A) (A) (A)
                 (A) (A) (A) (A) (A) (A) (A) (A) (A) (A) (A) (A)
                 (A) (A) (A) (A)
       Virtual   (A) (A) (A) (A) (A) (A) (A) (A) (A) (A) (A) (A)
                 (A) (A) (A) (A) (A) (A) (A) (A) (A) (A) (A) (A)
                 (A) (A) (A) (A) (A) (A) (A) (A) (A) (A) (A) (A)
                 (A) (A) (A) (A) (A) (A) (A) (A) (A) (A) (A) (A)
                 (A) (A) (A) (A) (A) (A) (A) (A) (A) (A) (A) (A)
                 (A) (A) (A) (A) (A) (A) (A) (A) (A) (A) (A) (A)
                 (A) (A) (A) (A)
 The electronic state is 1-A.
 Alpha  occ. eigenvalues --  -19.88625 -19.83594 -19.79986 -14.97265 -14.92379
 Alpha  occ. eigenvalues --  -10.87370 -10.85642 -10.77262 -10.74612 -10.62905
 Alpha  occ. eigenvalues --   -1.39796  -1.37330  -1.30725  -1.22680  -1.17664
 Alpha  occ. eigenvalues --   -1.05383  -0.95903  -0.89891  -0.87562  -0.84263
 Alpha  occ. eigenvalues --   -0.81634  -0.77773  -0.73695  -0.73037  -0.72590
 Alpha  occ. eigenvalues --   -0.71132  -0.68789  -0.67587  -0.65326  -0.63422
 Alpha  occ. eigenvalues --   -0.62771  -0.60157  -0.56908  -0.56803  -0.56699
 Alpha  occ. eigenvalues --   -0.55740  -0.54226  -0.53436  -0.51020  -0.48637
 Alpha virt. eigenvalues --   -0.30898  -0.14288  -0.11712  -0.03084  -0.00558
 Alpha virt. eigenvalues --   -0.00032   0.01564   0.02432   0.04357   0.05692
 Alpha virt. eigenvalues --    0.07350   0.07838   0.08494   0.10158   0.11286
 Alpha virt. eigenvalues --    0.11450   0.12776   0.13705   0.16183   0.18885
 Alpha virt. eigenvalues --    0.20428   0.25430   0.28971   0.39582   0.42487
 Alpha virt. eigenvalues --    0.44514   0.46820   0.47502   0.48421   0.48898
 Alpha virt. eigenvalues --    0.50458   0.52550   0.52695   0.55080   0.58986
 Alpha virt. eigenvalues --    0.59258   0.60998   0.62312   0.64562   0.65175
 Alpha virt. eigenvalues --    0.68104   0.70561   0.71926   0.75741   0.78003
 Alpha virt. eigenvalues --    0.78782   0.79991   0.81970   0.83743   0.84733
 Alpha virt. eigenvalues --    0.87081   0.87684   0.88376   0.88701   0.89693
 Alpha virt. eigenvalues --    0.92380   0.92893   0.94856   0.95611   0.97379
 Alpha virt. eigenvalues --    1.02034   1.03032   1.04522   1.09868   1.11775
 Alpha virt. eigenvalues --    1.13963   1.19706   1.23652   1.30786   1.33459
 Alpha virt. eigenvalues --    1.42033   1.51980   1.64338   1.74934   1.76870
 Alpha virt. eigenvalues --    1.85856
          Condensed to atoms (all electrons):
               1          2          3          4          5          6
     1  C    5.188865   0.375343   0.371609   0.000000   0.370279   0.371183
     2  H    0.375343   0.470749  -0.018064   0.000000  -0.019936  -0.020305
     3  H    0.371609  -0.018064   0.521630   0.000000  -0.029566  -0.030013
     4  H    0.000000   0.000000   0.000000   0.431277   0.000000   0.000000
     5  H    0.370279  -0.019936  -0.029566   0.000000   0.538398  -0.032119
     6  H    0.371183  -0.020305  -0.030013   0.000000  -0.032119   0.543852
     7  C    0.000000   0.000000  -0.000001  -0.011890   0.000000   0.000000
     8  C   -0.000005   0.000001   0.000084   0.000426  -0.000011  -0.000007
     9  C    0.000245   0.000038   0.001504   0.000003  -0.000151  -0.000130
    10  N    0.000000   0.000000  -0.000001   0.000004   0.000000   0.000000
    11  O   -0.001333   0.000015   0.003353   0.000114   0.000043   0.000016
    12  O   -0.005186   0.000175  -0.001637   0.000000  -0.000756  -0.000627
    13  C    0.000000   0.000000   0.000000   0.007950   0.000000   0.000000
    14  H    0.000000   0.000000   0.000000   0.000298   0.000000   0.000000
    15  H    0.000000   0.000000   0.000000   0.007391   0.000000   0.000000
    16  H    0.000001   0.000000  -0.000002  -0.000004   0.000000   0.000000
    17  H    0.000000   0.000000   0.000000  -0.000019   0.000000   0.000000
    18  H   -0.000001   0.000000   0.000000   0.000000   0.000000   0.000000
    19  H    0.026667  -0.000925   0.002072   0.000000   0.005125   0.004654
    20  N    0.000000   0.000000   0.000000   0.002259   0.000000   0.000000
    21  O    0.000000   0.000000   0.000000   0.130013   0.000000   0.000000
    22  H    0.000000   0.000000   0.000000   0.000000   0.000000   0.000000
    23  H    0.000000   0.000000   0.000000  -0.000033   0.000000   0.000000
               7          8          9         10         11         12
     1  C    0.000000  -0.000005   0.000245   0.000000  -0.001333  -0.005186
     2  H    0.000000   0.000001   0.000038   0.000000   0.000015   0.000175
     3  H   -0.000001   0.000084   0.001504  -0.000001   0.003353  -0.001637
     4  H   -0.011890   0.000426   0.000003   0.000004   0.000114   0.000000
     5  H    0.000000  -0.000011  -0.000151   0.000000   0.000043  -0.000756
     6  H    0.000000  -0.000007  -0.000130   0.000000   0.000016  -0.000627
     7  C    5.415427   0.214255  -0.047779  -0.070556   0.008222   0.005350
     8  C    0.214255   5.575364   0.152124   0.192541  -0.124363  -0.148417
     9  C   -0.047779   0.152124   4.756254  -0.049645   0.497468   0.192704
    10  N   -0.070556   0.192541  -0.049645   7.093768   0.002188   0.001813
    11  O    0.008222  -0.124363   0.497468   0.002188   8.122755  -0.108748
    12  O    0.005350  -0.148417   0.192704   0.001813  -0.108748   8.421651
    13  C    0.253609  -0.017948  -0.008111  -0.006681   0.010192  -0.000558
    14  H    0.376257  -0.028135   0.005682  -0.001535   0.000407  -0.000028
    15  H    0.365945  -0.027731  -0.002330   0.003977   0.004715   0.000131
    16  H   -0.043692   0.385257  -0.027526  -0.036330   0.001115   0.000959
    17  H   -0.009444  -0.011562  -0.000529   0.093133   0.000207  -0.000074
    18  H    0.004813  -0.034209  -0.007523   0.320666   0.000223   0.013179
    19  H   -0.000158   0.005495  -0.018654  -0.000119  -0.000573   0.237017
    20  N   -0.094823   0.006784   0.000592  -0.075914  -0.003346   0.000060
    21  O   -0.057465   0.002471  -0.000626  -0.000152  -0.001601  -0.000001
    22  H   -0.000976  -0.029173   0.004168   0.322129  -0.000080  -0.000005
    23  H    0.004061  -0.000242  -0.000101   0.001531   0.000029   0.000003
              13         14         15         16         17         18
     1  C    0.000000   0.000000   0.000000   0.000001   0.000000  -0.000001
     2  H    0.000000   0.000000   0.000000   0.000000   0.000000   0.000000
     3  H    0.000000   0.000000   0.000000  -0.000002   0.000000   0.000000
     4  H    0.007950   0.000298   0.007391  -0.000004  -0.000019   0.000000
     5  H    0.000000   0.000000   0.000000   0.000000   0.000000   0.000000
     6  H    0.000000   0.000000   0.000000   0.000000   0.000000   0.000000
     7  C    0.253609   0.376257   0.365945  -0.043692  -0.009444   0.004813
     8  C   -0.017948  -0.028135  -0.027731   0.385257  -0.011562  -0.034209
     9  C   -0.008111   0.005682  -0.002330  -0.027526  -0.000529  -0.007523
    10  N   -0.006681  -0.001535   0.003977  -0.036330   0.093133   0.320666
    11  O    0.010192   0.000407   0.004715   0.001115   0.000207   0.000223
    12  O   -0.000558  -0.000028   0.000131   0.000959  -0.000074   0.013179
    13  C    4.632632  -0.034889  -0.034028   0.004071  -0.013832   0.000154
    14  H   -0.034889   0.449951  -0.017359  -0.003284  -0.000261  -0.000053
    15  H   -0.034028  -0.017359   0.492238  -0.000663   0.000370  -0.000109
    16  H    0.004071  -0.003284  -0.000663   0.467745   0.000977   0.000978
    17  H   -0.013832  -0.000261   0.000370   0.000977   0.257804  -0.000510
    18  H    0.000154  -0.000053  -0.000109   0.000978  -0.000510   0.339552
    19  H   -0.000009   0.000002  -0.000002  -0.000254  -0.000020  -0.000265
    20  N    0.310022  -0.001416   0.004603  -0.000308   0.232562   0.000344
    21  O    0.328841   0.000975  -0.002614  -0.000067   0.001478   0.000002
    22  H   -0.000207   0.001640  -0.000078  -0.003869  -0.001518  -0.021048
    23  H   -0.021690  -0.000137  -0.000071   0.000011  -0.002890  -0.000013
              19         20         21         22         23
     1  C    0.026667   0.000000   0.000000   0.000000   0.000000
     2  H   -0.000925   0.000000   0.000000   0.000000   0.000000
     3  H    0.002072   0.000000   0.000000   0.000000   0.000000
     4  H    0.000000   0.002259   0.130013   0.000000  -0.000033
     5  H    0.005125   0.000000   0.000000   0.000000   0.000000
     6  H    0.004654   0.000000   0.000000   0.000000   0.000000
     7  C   -0.000158  -0.094823  -0.057465  -0.000976   0.004061
     8  C    0.005495   0.006784   0.002471  -0.029173  -0.000242
     9  C   -0.018654   0.000592  -0.000626   0.004168  -0.000101
    10  N   -0.000119  -0.075914  -0.000152   0.322129   0.001531
    11  O   -0.000573  -0.003346  -0.001601  -0.000080   0.000029
    12  O    0.237017   0.000060  -0.000001  -0.000005   0.000003
    13  C   -0.000009   0.310022   0.328841  -0.000207  -0.021690
    14  H    0.000002  -0.001416   0.000975   0.001640  -0.000137
    15  H   -0.000002   0.004603  -0.002614  -0.000078  -0.000071
    16  H   -0.000254  -0.000308  -0.000067  -0.003869   0.000011
    17  H   -0.000020   0.232562   0.001478  -0.001518  -0.002890
    18  H   -0.000265   0.000344   0.000002  -0.021048  -0.000013
    19  H    0.276339   0.000010   0.000000   0.000017  -0.000001
    20  N    0.000010   7.129198  -0.117923   0.000943   0.308069
    21  O    0.000000  -0.117923   8.166351   0.000002  -0.000817
    22  H    0.000017   0.000943   0.000002   0.371723  -0.000022
    23  H   -0.000001   0.308069  -0.000817  -0.000022   0.300468
 Mulliken charges:
               1
     1  C   -0.697669
     2  H    0.212909
     3  H    0.179030
     4  H    0.432212
     5  H    0.168694
     6  H    0.163495
     7  C   -0.311156
     8  C   -0.113001
     9  C    0.552322
    10  N   -0.790818
    11  O   -0.411017
    12  O   -0.607006
    13  C    0.590479
    14  H    0.251884
    15  H    0.205616
    16  H    0.254883
    17  H    0.454128
    18  H    0.383820
    19  H    0.463582
    20  N   -0.701715
    21  O   -0.448868
    22  H    0.356354
    23  H    0.411843
 Sum of Mulliken charges =   1.00000
 Mulliken charges with hydrogens summed into heavy atoms:
               1
     1  C    0.026459
     7  C    0.146343
     8  C    0.141882
     9  C    0.552322
    10  N   -0.050644
    11  O   -0.411017
    12  O   -0.143424
    13  C    0.590479
    20  N    0.164257
    21  O   -0.016656
 Electronic spatial extent (au):  <R**2>=           2002.6203
 Charge=              1.0000 electrons
 Dipole moment (field-independent basis, Debye):
    X=              4.9210    Y=              0.8668    Z=             -1.5821  Tot=              5.2413
 Quadrupole moment (field-independent basis, Debye-Ang):
   XX=            -33.7194   YY=            -44.4786   ZZ=            -44.7734
   XY=             -3.5588   XZ=             -6.6693   YZ=              5.6677
 Traceless Quadrupole moment (field-independent basis, Debye-Ang):
   XX=              7.2711   YY=             -3.4882   ZZ=             -3.7829
   XY=             -3.5588   XZ=             -6.6693   YZ=              5.6677
 Octapole moment (field-independent basis, Debye-Ang**2):
  XXX=            -22.0097  YYY=              2.9456  ZZZ=              5.6724  XYY=             32.9961
  XXY=            -22.5065  XXZ=             -7.6236  XZZ=             31.0397  YZZ=            -16.4260
  YYZ=            -19.9572  XYZ=             16.9923
 Hexadecapole moment (field-independent basis, Debye-Ang**3):
 XXXX=          -1449.1610 YYYY=           -394.8457 ZZZZ=           -192.6799 XXXY=             15.3964
 XXXZ=            -46.8948 YYYX=            -47.4837 YYYZ=             77.7721 ZZZX=             13.4207
 ZZZY=             14.8714 XXYY=           -312.5182 XXZZ=           -273.2735 YYZZ=            -83.5616
 XXYZ=             33.7577 YYXZ=            -58.6617 ZZXY=            -53.8224
 N-N= 5.831688540286D+02 E-N=-2.398861722821D+03  KE= 5.295369577095D+02
 No NMR shielding tensors so no spin-rotation constants.
 Leave Link  601 at Thu Mar 12 19:37:59 2020, MaxMem=    33554432 cpu:         0.1
 (Enter /usr/local/gaussian09d01/g09/l9999.exe)
 1\1\GINC-KARURA\SP\RM062X\6-31G\C5H13N2O3(1+)\RTAKE\12-Mar-2020\0\\#p 
 M062X/6-31G\\chk calc\\1,1\C,0,3.824482709,-1.14219544,1.17225369\H,0,
 4.799113079,-1.62961423,1.173808707\H,0,3.053614027,-1.916312598,1.160
 804944\H,0,-2.723621313,-3.540979209,-0.509516436\H,0,3.75960642,-0.53
 291794,2.07824618\H,0,3.765323683,-0.52154146,0.273951194\C,0,-2.40154
 2122,-0.705499021,0.492562549\C,0,-1.33365594,0.193207044,1.141270536\
 C,0,0.021967089,-0.47033751,0.950186539\N,0,-1.303304814,1.529148773,0
 .515945207\O,0,0.155929117,-1.611462803,0.51692019\O,0,1.024922388,0.3
 53392554,1.298656\C,0,-2.121889445,-0.918337302,-0.967112723\H,0,-3.39
 229932,-0.247402335,0.596496855\H,0,-2.419176945,-1.669900059,1.004436
 439\H,0,-1.526304416,0.239474424,2.221387894\H,0,-1.503902114,0.960750
 702,-1.170400229\H,0,-0.410560182,1.997532273,0.666150752\H,0,1.924402
 159,-0.039925506,1.230818645\N,0,-1.700457396,0.069239192,-1.694919761
 \O,0,-2.336854815,-2.071648312,-1.575178364\H,0,-2.071900591,2.1285565
 43,0.807834339\H,0,-1.514408501,-0.054510917,-2.685235696\\Version=ES6
 4L-G09RevD.01\State=1-A\HF=-532.7680972\RMSD=8.644e-09\Dipole=-2.06082
 56,0.0062355,-0.0714254\Quadrupole=5.927162,0.8643434,-6.7915055,5.181
 2297,1.8183897,-0.3451228\PG=C01 [X(C5H13N2O3)]\\@


 I DO NOT KNOW WHAT I MAY APPEAR TO THE WORLD; BUT TO MYSELF
 I SEEM TO HAVE BEEN ONLY LIKE A BOY PLAYING ON THE SEASHORE,
 AND DIVERTING MYSELF IN NOW AND THEN FINDING A SMOOTHER PEBBLE
 OR A PRETTIER SHELL THAN ORDINARY, WHILST THE GREAT OCEAN OF
 TRUTH LAY ALL UNDISCOVERED BEFORE ME.
                                          -- NEWTON (1642-1726)
 Job cpu time:       0 days  0 hours  1 minutes  5.4 seconds.
 File lengths (MBytes):  RWF=      7 Int=      0 D2E=      0 Chk=      2 Scr=      1
 Normal termination of Gaussian 09 at Thu Mar 12 19:37:59 2020.
