 Entering Gaussian System, Link 0=g09
 Input=./h4_o21_20.gjf
 Output=./h4_o21_20.log
 Initial command:
 /usr/local/gaussian09d01/g09/l1.exe "/scr/Gau-22732.inp" -scrdir="/scr/"
 Entering Link 1 = /usr/local/gaussian09d01/g09/l1.exe PID=     22733.
  
 Copyright (c) 1988,1990,1992,1993,1995,1998,2003,2009,2013,
            Gaussian, Inc.  All Rights Reserved.
  
 This is part of the Gaussian(R) 09 program.  It is based on
 the Gaussian(R) 03 system (copyright 2003, Gaussian, Inc.),
 the Gaussian(R) 98 system (copyright 1998, Gaussian, Inc.),
 the Gaussian(R) 94 system (copyright 1995, Gaussian, Inc.),
 the Gaussian 92(TM) system (copyright 1992, Gaussian, Inc.),
 the Gaussian 90(TM) system (copyright 1990, Gaussian, Inc.),
 the Gaussian 88(TM) system (copyright 1988, Gaussian, Inc.),
 the Gaussian 86(TM) system (copyright 1986, Carnegie Mellon
 University), and the Gaussian 82(TM) system (copyright 1983,
 Carnegie Mellon University). Gaussian is a federally registered
 trademark of Gaussian, Inc.
  
 This software contains proprietary and confidential information,
 including trade secrets, belonging to Gaussian, Inc.
  
 This software is provided under written license and may be
 used, copied, transmitted, or stored only in accord with that
 written license.
  
 The following legend is applicable only to US Government
 contracts under FAR:
  
                    RESTRICTED RIGHTS LEGEND
  
 Use, reproduction and disclosure by the US Government is
 subject to restrictions as set forth in subparagraphs (a)
 and (c) of the Commercial Computer Software - Restricted
 Rights clause in FAR 52.227-19.
  
 Gaussian, Inc.
 340 Quinnipiac St., Bldg. 40, Wallingford CT 06492
  
  
 ---------------------------------------------------------------
 Warning -- This program may not be used in any manner that
 competes with the business of Gaussian, Inc. or will provide
 assistance to any competitor of Gaussian, Inc.  The licensee
 of this program is prohibited from giving any competitor of
 Gaussian, Inc. access to this program.  By using this program,
 the user acknowledges that Gaussian, Inc. is engaged in the
 business of creating and licensing software in the field of
 computational chemistry and represents and warrants to the
 licensee that it is not a competitor of Gaussian, Inc. and that
 it will not use this program in any manner prohibited above.
 ---------------------------------------------------------------
  

 Cite this work as:
 Gaussian 09, Revision D.01,
 M. J. Frisch, G. W. Trucks, H. B. Schlegel, G. E. Scuseria, 
 M. A. Robb, J. R. Cheeseman, G. Scalmani, V. Barone, B. Mennucci, 
 G. A. Petersson, H. Nakatsuji, M. Caricato, X. Li, H. P. Hratchian, 
 A. F. Izmaylov, J. Bloino, G. Zheng, J. L. Sonnenberg, M. Hada, 
 M. Ehara, K. Toyota, R. Fukuda, J. Hasegawa, M. Ishida, T. Nakajima, 
 Y. Honda, O. Kitao, H. Nakai, T. Vreven, J. A. Montgomery, Jr., 
 J. E. Peralta, F. Ogliaro, M. Bearpark, J. J. Heyd, E. Brothers, 
 K. N. Kudin, V. N. Staroverov, T. Keith, R. Kobayashi, J. Normand, 
 K. Raghavachari, A. Rendell, J. C. Burant, S. S. Iyengar, J. Tomasi, 
 M. Cossi, N. Rega, J. M. Millam, M. Klene, J. E. Knox, J. B. Cross, 
 V. Bakken, C. Adamo, J. Jaramillo, R. Gomperts, R. E. Stratmann, 
 O. Yazyev, A. J. Austin, R. Cammi, C. Pomelli, J. W. Ochterski, 
 R. L. Martin, K. Morokuma, V. G. Zakrzewski, G. A. Voth, 
 P. Salvador, J. J. Dannenberg, S. Dapprich, A. D. Daniels, 
 O. Farkas, J. B. Foresman, J. V. Ortiz, J. Cioslowski, 
 and D. J. Fox, Gaussian, Inc., Wallingford CT, 2013.
 
 ******************************************
 Gaussian 09:  ES64L-G09RevD.01 24-Apr-2013
                12-Mar-2020 
 ******************************************
 --------------
 #p M062X/6-31G
 --------------
 1/38=1/1;
 2/12=2,17=6,18=5,40=1/2;
 3/5=1,6=6,11=2,16=1,25=1,30=1,74=-55/1,2,3;
 4//1;
 5/5=2,38=5/2;
 6/7=2,8=2,9=2,10=2,28=1/1;
 99/5=1,9=1/99;
 Leave Link    1 at Thu Mar 12 19:37:59 2020, MaxMem=           0 cpu:         0.0
 (Enter /usr/local/gaussian09d01/g09/l101.exe)
 --------
 chk calc
 --------
 Symbolic Z-matrix:
 Charge =  1 Multiplicity = 1
 C                     3.82448  -1.1422    1.17225 
 H                     4.79911  -1.62961   1.17381 
 H                     3.05361  -1.91631   1.1608 
 H                    -2.74398  -3.61831  -0.45343 
 H                     3.75961  -0.53292   2.07825 
 H                     3.76532  -0.52154   0.27395 
 C                    -2.40154  -0.7055    0.49256 
 C                    -1.33366   0.19321   1.14127 
 C                     0.02197  -0.47034   0.95019 
 N                    -1.3033    1.52915   0.51595 
 O                     0.15593  -1.61146   0.51692 
 O                     1.02492   0.35339   1.29866 
 C                    -2.12189  -0.91834  -0.96711 
 H                    -3.3923   -0.2474    0.5965 
 H                    -2.41918  -1.6699    1.00444 
 H                    -1.5263    0.23947   2.22139 
 H                    -1.5039    0.96075  -1.1704 
 H                    -0.41056   1.99753   0.66615 
 H                     1.9244   -0.03993   1.23082 
 N                    -1.70046   0.06924  -1.69492 
 O                    -2.33685  -2.07165  -1.57518 
 H                    -2.0719    2.12856   0.80783 
 H                    -1.51441  -0.05451  -2.68524 
 
 NAtoms=     23 NQM=       23 NQMF=       0 NMMI=      0 NMMIF=      0
                NMic=       0 NMicF=      0.
                    Isotopes and Nuclear Properties:
 (Nuclear quadrupole moments (NQMom) in fm**2, nuclear magnetic moments (NMagM)
  in nuclear magnetons)

  Atom         1           2           3           4           5           6           7           8           9          10
 IAtWgt=          12           1           1           1           1           1          12          12          12          14
 AtmWgt=  12.0000000   1.0078250   1.0078250   1.0078250   1.0078250   1.0078250  12.0000000  12.0000000  12.0000000  14.0030740
 NucSpn=           0           1           1           1           1           1           0           0           0           2
 AtZEff=   0.0000000   0.0000000   0.0000000   0.0000000   0.0000000   0.0000000   0.0000000   0.0000000   0.0000000   0.0000000
 NQMom=    0.0000000   0.0000000   0.0000000   0.0000000   0.0000000   0.0000000   0.0000000   0.0000000   0.0000000   2.0440000
 NMagM=    0.0000000   2.7928460   2.7928460   2.7928460   2.7928460   2.7928460   0.0000000   0.0000000   0.0000000   0.4037610
 AtZNuc=   6.0000000   1.0000000   1.0000000   1.0000000   1.0000000   1.0000000   6.0000000   6.0000000   6.0000000   7.0000000

  Atom        11          12          13          14          15          16          17          18          19          20
 IAtWgt=          16          16          12           1           1           1           1           1           1          14
 AtmWgt=  15.9949146  15.9949146  12.0000000   1.0078250   1.0078250   1.0078250   1.0078250   1.0078250   1.0078250  14.0030740
 NucSpn=           0           0           0           1           1           1           1           1           1           2
 AtZEff=   0.0000000   0.0000000   0.0000000   0.0000000   0.0000000   0.0000000   0.0000000   0.0000000   0.0000000   0.0000000
 NQMom=    0.0000000   0.0000000   0.0000000   0.0000000   0.0000000   0.0000000   0.0000000   0.0000000   0.0000000   2.0440000
 NMagM=    0.0000000   0.0000000   0.0000000   2.7928460   2.7928460   2.7928460   2.7928460   2.7928460   2.7928460   0.4037610
 AtZNuc=   8.0000000   8.0000000   6.0000000   1.0000000   1.0000000   1.0000000   1.0000000   1.0000000   1.0000000   7.0000000

  Atom        21          22          23
 IAtWgt=          16           1           1
 AtmWgt=  15.9949146   1.0078250   1.0078250
 NucSpn=           0           1           1
 AtZEff=   0.0000000   0.0000000   0.0000000
 NQMom=    0.0000000   0.0000000   0.0000000
 NMagM=    0.0000000   2.7928460   2.7928460
 AtZNuc=   8.0000000   1.0000000   1.0000000
 Leave Link  101 at Thu Mar 12 19:37:59 2020, MaxMem=    33554432 cpu:         0.0
 (Enter /usr/local/gaussian09d01/g09/l202.exe)
                          Input orientation:                          
 ---------------------------------------------------------------------
 Center     Atomic      Atomic             Coordinates (Angstroms)
 Number     Number       Type             X           Y           Z
 ---------------------------------------------------------------------
      1          6           0        3.824483   -1.142195    1.172254
      2          1           0        4.799113   -1.629614    1.173809
      3          1           0        3.053614   -1.916313    1.160805
      4          1           0       -2.743977   -3.618312   -0.453429
      5          1           0        3.759606   -0.532918    2.078246
      6          1           0        3.765324   -0.521541    0.273951
      7          6           0       -2.401542   -0.705499    0.492563
      8          6           0       -1.333656    0.193207    1.141271
      9          6           0        0.021967   -0.470338    0.950187
     10          7           0       -1.303305    1.529149    0.515945
     11          8           0        0.155929   -1.611463    0.516920
     12          8           0        1.024922    0.353393    1.298656
     13          6           0       -2.121889   -0.918337   -0.967113
     14          1           0       -3.392299   -0.247402    0.596497
     15          1           0       -2.419177   -1.669900    1.004436
     16          1           0       -1.526304    0.239474    2.221388
     17          1           0       -1.503902    0.960751   -1.170400
     18          1           0       -0.410560    1.997532    0.666151
     19          1           0        1.924402   -0.039926    1.230819
     20          7           0       -1.700457    0.069239   -1.694920
     21          8           0       -2.336855   -2.071648   -1.575178
     22          1           0       -2.071901    2.128557    0.807834
     23          1           0       -1.514409   -0.054511   -2.685236
 ---------------------------------------------------------------------
                    Distance matrix (angstroms):
                    1          2          3          4          5
     1  C    0.000000
     2  H    1.089717   0.000000
     3  H    1.092532   1.768935   0.000000
     4  H    7.205461   7.968754   6.254168   0.000000
     5  H    1.093732   1.761058   1.803858   7.630573   0.000000
     6  H    1.093462   1.762467   1.799563   7.245003   1.804340
     7  C    6.278222   7.291606   5.627730   3.081662   6.364270
     8  C    5.328288   6.398015   4.868120   4.365748   5.229388
     9  C    3.867794   4.920879   3.365425   4.419313   3.904662
    10  N    5.819023   6.902903   5.591940   5.432456   5.685594
    11  O    3.756056   4.689455   2.983974   3.657661   4.072774
    12  O    3.176523   4.265257   3.047319   5.748813   2.978557
    13  C    6.323476   7.279405   5.684173   2.817930   6.634362
    14  H    7.294799   8.327247   6.682328   3.589666   7.309368
    15  H    6.268167   7.220389   5.480567   2.455031   6.373630
    16  H    5.624999   6.678459   5.171838   4.849731   5.343962
    17  H    6.188869   7.206477   5.872220   4.797880   6.363118
    18  H    5.296189   6.368250   5.250083   6.183527   5.078138
    19  H    2.197438   3.285472   2.191084   6.118440   2.080661
    20  N    6.341389   7.304801   5.890567   4.028433   6.664208
    21  O    6.809871   7.659919   6.047056   1.953520   7.272004
    22  H    6.752626   7.840192   6.538842   5.921906   6.534820
    23  H    6.675855   7.565298   6.255011   4.381037   7.122841
                    6          7          8          9         10
     6  H    0.000000
     7  C    6.173481   0.000000
     8  C    5.221370   1.539115   0.000000
     9  C    3.804292   2.477522   1.521354   0.000000
    10  N    5.473106   2.490045   1.475362   2.437797   0.000000
    11  O    3.778186   2.713305   2.421882   1.227938   3.463063
    12  O    3.053740   3.675826   2.369245   1.343831   2.723175
    13  C    6.029674   1.501385   2.510403   2.910818   2.976530
    14  H    7.170129   1.096474   2.174610   3.439769   2.743450
    15  H    6.332486   1.091969   2.160613   2.720492   3.423114
    16  H    5.689726   2.155888   1.098138   2.125307   2.149773
    17  H    5.661103   2.519443   2.441706   2.978788   1.790831
    18  H    4.892602   3.361625   2.081690   2.521535   1.019283
    19  H    2.129916   4.438671   3.267616   1.970601   3.659389
    20  N    5.839541   2.424215   2.862497   3.202261   2.678990
    21  O    6.561912   2.479133   3.676285   3.808636   4.290310
    22  H    6.432825   2.870528   2.098038   3.340478   1.017462
    23  H    6.070459   3.362914   3.838774   3.968584   3.577723
                   11         12         13         14         15
    11  O    0.000000
    12  O    2.286245   0.000000
    13  C    2.805572   4.080861   0.000000
    14  H    3.802225   4.512852   2.123434   0.000000
    15  H    2.621499   4.005259   2.130782   1.771124   0.000000
    16  H    3.026729   2.715358   3.444094   2.521757   2.433907
    17  H    3.495479   3.586095   1.988519   2.854401   3.533832
    18  H    3.656231   2.272415   3.754796   3.733008   4.195121
    19  H    2.471210   0.984055   4.687748   5.358426   4.644862
    20  N    3.341132   4.058317   1.297157   2.865865   3.290545
    21  O    3.286734   5.043936   1.321393   3.026220   2.612009
    22  H    4.362981   3.603113   3.526542   2.726407   3.819362
    23  H    3.932929   4.741938   2.016724   3.785954   4.128168
                   16         17         18         19         20
    16  H    0.000000
    17  H    3.467704   0.000000
    18  H    2.598926   2.375549   0.000000
    19  H    3.600926   4.303542   3.149942   0.000000
    20  N    3.923872   1.052876   3.310106   4.659557   0.000000
    21  O    4.517986   3.170662   5.029155   5.491796   2.236680
    22  H    2.421661   2.366391   1.672511   4.566362   3.262290
    23  H    4.915437   1.823621   4.081808   5.211632   1.015211
                   21         22         23
    21  O    0.000000
    22  H    4.836390   0.000000
    23  H    2.444890   4.156696   0.000000
 Stoichiometry    C5H13N2O3(1+)
 Framework group  C1[X(C5H13N2O3)]
 Deg. of freedom    63
 Full point group                 C1      NOp   1
 Largest Abelian subgroup         C1      NOp   1
 Largest concise Abelian subgroup C1      NOp   1
                         Standard orientation:                         
 ---------------------------------------------------------------------
 Center     Atomic      Atomic             Coordinates (Angstroms)
 Number     Number       Type             X           Y           Z
 ---------------------------------------------------------------------
      1          6           0       -4.367491   -0.940736    0.339949
      2          1           0       -5.270165   -1.543706    0.435297
      3          1           0       -3.647366   -1.494495   -0.267009
      4          1           0        2.335070   -2.671285   -1.659936
      5          1           0       -4.649352    0.000192   -0.141154
      6          1           0       -3.976062   -0.767947    1.346222
      7          6           0        1.656140    0.253487   -0.966101
      8          6           0        0.420878    1.139502   -0.725314
      9          6           0       -0.762007    0.230339   -0.427450
     10          7           0        0.625265    2.047078    0.419774
     11          8           0       -0.720889   -0.989856   -0.558849
     12          8           0       -1.824034    0.932152    0.003177
     13          6           0        1.946444   -0.613057    0.225110
     14          1           0        2.534140    0.878797   -1.166995
     15          1           0        1.481895   -0.376395   -1.840905
     16          1           0        0.193047    1.679760   -1.653819
     17          1           0        1.446522    0.853119    1.471950
     18          1           0       -0.259361    2.368492    0.811011
     19          1           0       -2.631165    0.395853    0.174317
     20          7           0        1.827710   -0.127054    1.421905
     21          8           0        2.376637   -1.857654    0.115597
     22          1           0        1.226441    2.839139    0.204238
     23          1           0        2.028036   -0.696034    2.238473
 ---------------------------------------------------------------------
 Rotational constants (GHZ):      1.7757143      0.7152244      0.6049350
 Leave Link  202 at Thu Mar 12 19:37:59 2020, MaxMem=    33554432 cpu:         0.0
 (Enter /usr/local/gaussian09d01/g09/l301.exe)
 Standard basis: 6-31G (6D, 7F)
 Ernie: Thresh=  0.10000D-02 Tol=  0.10000D-05 Strict=F.
 There are   116 symmetry adapted cartesian basis functions of A   symmetry.
 There are   116 symmetry adapted basis functions of A   symmetry.
   116 basis functions,   272 primitive gaussians,   116 cartesian basis functions
    40 alpha electrons       40 beta electrons
       nuclear repulsion energy       582.9152437496 Hartrees.
 IExCor= 4336 DFT=T Ex+Corr=M062X ExCW=0 ScaHFX=  0.540000
 ScaDFX=  1.000000  1.000000  1.000000  1.000000 ScalE2=  1.000000  1.000000
 IRadAn=      0 IRanWt=     -1 IRanGd=            0 ICorTp=0 IEmpDi=  4
 NAtoms=   23 NActive=   23 NUniq=   23 SFac= 1.00D+00 NAtFMM=   60 NAOKFM=F Big=F
 Integral buffers will be    131072 words long.
 Raffenetti 2 integral format.
 Two-electron integral symmetry is turned on.
 Leave Link  301 at Thu Mar 12 19:37:59 2020, MaxMem=    33554432 cpu:         0.0
 (Enter /usr/local/gaussian09d01/g09/l302.exe)
 NPDir=0 NMtPBC=     1 NCelOv=     1 NCel=       1 NClECP=     1 NCelD=      1
         NCelK=      1 NCelE2=     1 NClLst=     1 CellRange=     0.0.
 One-electron integrals computed using PRISM.
 NBasis=   116 RedAO= T EigKep=  3.57D-03  NBF=   116
 NBsUse=   116 1.00D-06 EigRej= -1.00D+00 NBFU=   116
 Precomputing XC quadrature grid using
 IXCGrd= 4 IRadAn=           0 IRanWt=          -1 IRanGd=           0 AccXCQ= 0.00D+00.
 Generated NRdTot=       0 NPtTot=           0 NUsed=           0 NTot=          32
 NSgBfM=   115   115   115   115   115 MxSgAt=    23 MxSgA2=    23.
 Leave Link  302 at Thu Mar 12 19:37:59 2020, MaxMem=    33554432 cpu:         0.3
 (Enter /usr/local/gaussian09d01/g09/l303.exe)
 DipDrv:  MaxL=1.
 Leave Link  303 at Thu Mar 12 19:37:59 2020, MaxMem=    33554432 cpu:         0.0
 (Enter /usr/local/gaussian09d01/g09/l401.exe)
 ExpMin= 1.61D-01 ExpMax= 5.48D+03 ExpMxC= 8.25D+02 IAcc=1 IRadAn=         1 AccDes= 0.00D+00
 Harris functional with IExCor= 1009 and IRadAn=       1 diagonalized for initial guess.
 HarFok:  IExCor= 1009 AccDes= 0.00D+00 IRadAn=         1 IDoV= 1 UseB2=F ITyADJ=14
 ICtDFT=  3500011 ScaDFX=  1.000000  1.000000  1.000000  1.000000
 FoFCou: FMM=F IPFlag=           0 FMFlag=      100000 FMFlg1=           0
         NFxFlg=           0 DoJE=T BraDBF=F KetDBF=T FulRan=T
         wScrn=  0.000000 ICntrl=     500 IOpCl=  0 I1Cent=   200000004 NGrid=           0
         NMat0=    1 NMatS0=      1 NMatT0=    0 NMatD0=    1 NMtDS0=    0 NMtDT0=    0
 Petite list used in FoFCou.
 Harris En= -532.624886354152    
 JPrj=0 DoOrth=F DoCkMO=F.
 Leave Link  401 at Thu Mar 12 19:38:00 2020, MaxMem=    33554432 cpu:         0.8
 (Enter /usr/local/gaussian09d01/g09/l502.exe)
 Closed shell SCF:
 Using DIIS extrapolation, IDIIS=  1040.
 Integral symmetry usage will be decided dynamically.
 Keep R1 ints in memory in canonical form, NReq=24030401.
 IVT=       60528 IEndB=       60528 NGot=    33554432 MDV=    10465614
 LenX=    10465614 LenY=    10451717
 Requested convergence on RMS density matrix=1.00D-08 within 128 cycles.
 Requested convergence on MAX density matrix=1.00D-06.
 Requested convergence on             energy=1.00D-06.
 No special actions if energy rises.
 FoFCou: FMM=F IPFlag=           0 FMFlag=           0 FMFlg1=           0
         NFxFlg=           0 DoJE=F BraDBF=F KetDBF=F FulRan=T
         wScrn=  0.000000 ICntrl=     600 IOpCl=  0 I1Cent=           0 NGrid=           0
         NMat0=    1 NMatS0=   6786 NMatT0=    0 NMatD0=    1 NMtDS0=    0 NMtDT0=    0
 Symmetry not used in FoFCou.
 Integral accuracy reduced to 1.0D-05 until final iterations.

 Cycle   1  Pass 0  IDiag  1:
 E= -532.428677526842    
 DIIS: error= 5.13D-02 at cycle   1 NSaved=   1.
 NSaved= 1 IEnMin= 1 EnMin= -532.428677526842     IErMin= 1 ErrMin= 5.13D-02
 ErrMax= 5.13D-02  0.00D+00 EMaxC= 1.00D-01 BMatC= 3.47D-01 BMatP= 3.47D-01
 IDIUse=3 WtCom= 4.87D-01 WtEn= 5.13D-01
 Coeff-Com:  0.100D+01
 Coeff-En:   0.100D+01
 Coeff:      0.100D+01
 Gap=     0.013 Goal=   None    Shift=    0.000
 GapD=    0.013 DampG=0.250 DampE=0.500 DampFc=0.2500 IDamp=-1.
 Damping current iteration by 2.50D-01
 RMSDP=1.00D-02 MaxDP=2.76D-01              OVMax= 4.83D-01

 Cycle   2  Pass 0  IDiag  1:
 E= -532.540326119980     Delta-E=       -0.111648593138 Rises=F Damp=T
 DIIS: error= 2.79D-02 at cycle   2 NSaved=   2.
 NSaved= 2 IEnMin= 2 EnMin= -532.540326119980     IErMin= 2 ErrMin= 2.79D-02
 ErrMax= 2.79D-02  0.00D+00 EMaxC= 1.00D-01 BMatC= 8.52D-02 BMatP= 3.47D-01
 IDIUse=3 WtCom= 7.21D-01 WtEn= 2.79D-01
 Coeff-Com: -0.668D+00 0.167D+01
 Coeff-En:   0.000D+00 0.100D+01
 Coeff:     -0.482D+00 0.148D+01
 Gap=     0.093 Goal=   None    Shift=    0.000
 RMSDP=3.39D-03 MaxDP=6.33D-02 DE=-1.12D-01 OVMax= 3.26D-01

 Cycle   3  Pass 0  IDiag  1:
 E= -532.710630686188     Delta-E=       -0.170304566208 Rises=F Damp=F
 DIIS: error= 1.81D-02 at cycle   3 NSaved=   3.
 NSaved= 3 IEnMin= 3 EnMin= -532.710630686188     IErMin= 3 ErrMin= 1.81D-02
 ErrMax= 1.81D-02  0.00D+00 EMaxC= 1.00D-01 BMatC= 4.61D-02 BMatP= 8.52D-02
 IDIUse=3 WtCom= 8.19D-01 WtEn= 1.81D-01
 Coeff-Com: -0.373D+00 0.912D+00 0.461D+00
 Coeff-En:   0.000D+00 0.000D+00 0.100D+01
 Coeff:     -0.306D+00 0.747D+00 0.559D+00
 Gap=     0.163 Goal=   None    Shift=    0.000
 RMSDP=2.08D-03 MaxDP=7.47D-02 DE=-1.70D-01 OVMax= 1.06D-01

 Cycle   4  Pass 0  IDiag  1:
 E= -532.743546664160     Delta-E=       -0.032915977971 Rises=F Damp=F
 DIIS: error= 1.16D-02 at cycle   4 NSaved=   4.
 NSaved= 4 IEnMin= 4 EnMin= -532.743546664160     IErMin= 4 ErrMin= 1.16D-02
 ErrMax= 1.16D-02  0.00D+00 EMaxC= 1.00D-01 BMatC= 1.15D-02 BMatP= 4.61D-02
 IDIUse=3 WtCom= 8.84D-01 WtEn= 1.16D-01
 Coeff-Com: -0.715D-02 0.703D-01 0.329D+00 0.608D+00
 Coeff-En:   0.000D+00 0.000D+00 0.205D+00 0.795D+00
 Coeff:     -0.632D-02 0.621D-01 0.314D+00 0.630D+00
 Gap=     0.158 Goal=   None    Shift=    0.000
 RMSDP=8.00D-04 MaxDP=2.59D-02 DE=-3.29D-02 OVMax= 4.09D-02

 Cycle   5  Pass 0  IDiag  1:
 E= -532.752456025608     Delta-E=       -0.008909361449 Rises=F Damp=F
 DIIS: error= 2.74D-03 at cycle   5 NSaved=   5.
 NSaved= 5 IEnMin= 5 EnMin= -532.752456025608     IErMin= 5 ErrMin= 2.74D-03
 ErrMax= 2.74D-03  0.00D+00 EMaxC= 1.00D-01 BMatC= 9.08D-04 BMatP= 1.15D-02
 IDIUse=3 WtCom= 9.73D-01 WtEn= 2.74D-02
 Coeff-Com:  0.402D-01-0.627D-01 0.139D+00 0.376D+00 0.507D+00
 Coeff-En:   0.000D+00 0.000D+00 0.000D+00 0.000D+00 0.100D+01
 Coeff:      0.391D-01-0.610D-01 0.135D+00 0.366D+00 0.521D+00
 Gap=     0.160 Goal=   None    Shift=    0.000
 RMSDP=2.71D-04 MaxDP=6.25D-03 DE=-8.91D-03 OVMax= 9.74D-03

 Cycle   6  Pass 0  IDiag  1:
 E= -532.753149604161     Delta-E=       -0.000693578553 Rises=F Damp=F
 DIIS: error= 7.32D-04 at cycle   6 NSaved=   6.
 NSaved= 6 IEnMin= 6 EnMin= -532.753149604161     IErMin= 6 ErrMin= 7.32D-04
 ErrMax= 7.32D-04  0.00D+00 EMaxC= 1.00D-01 BMatC= 7.14D-05 BMatP= 9.08D-04
 IDIUse=3 WtCom= 9.93D-01 WtEn= 7.32D-03
 Coeff-Com:  0.243D-01-0.390D-01 0.492D-01 0.124D+00 0.249D+00 0.592D+00
 Coeff-En:   0.000D+00 0.000D+00 0.000D+00 0.000D+00 0.000D+00 0.100D+01
 Coeff:      0.241D-01-0.387D-01 0.488D-01 0.123D+00 0.247D+00 0.595D+00
 Gap=     0.162 Goal=   None    Shift=    0.000
 RMSDP=7.30D-05 MaxDP=1.43D-03 DE=-6.94D-04 OVMax= 2.75D-03

 Cycle   7  Pass 0  IDiag  1:
 E= -532.753212216038     Delta-E=       -0.000062611877 Rises=F Damp=F
 DIIS: error= 3.33D-04 at cycle   7 NSaved=   7.
 NSaved= 7 IEnMin= 7 EnMin= -532.753212216038     IErMin= 7 ErrMin= 3.33D-04
 ErrMax= 3.33D-04  0.00D+00 EMaxC= 1.00D-01 BMatC= 9.41D-06 BMatP= 7.14D-05
 IDIUse=3 WtCom= 9.97D-01 WtEn= 3.33D-03
 Coeff-Com:  0.444D-02-0.627D-02-0.767D-02-0.386D-01-0.230D-01 0.256D+00
 Coeff-Com:  0.815D+00
 Coeff-En:   0.000D+00 0.000D+00 0.000D+00 0.000D+00 0.000D+00 0.000D+00
 Coeff-En:   0.100D+01
 Coeff:      0.442D-02-0.625D-02-0.765D-02-0.384D-01-0.230D-01 0.255D+00
 Coeff:      0.816D+00
 Gap=     0.163 Goal=   None    Shift=    0.000
 RMSDP=3.68D-05 MaxDP=6.93D-04 DE=-6.26D-05 OVMax= 1.19D-03

 Cycle   8  Pass 0  IDiag  1:
 E= -532.753222118035     Delta-E=       -0.000009901998 Rises=F Damp=F
 DIIS: error= 3.77D-05 at cycle   8 NSaved=   8.
 NSaved= 8 IEnMin= 8 EnMin= -532.753222118035     IErMin= 8 ErrMin= 3.77D-05
 ErrMax= 3.77D-05  0.00D+00 EMaxC= 1.00D-01 BMatC= 3.23D-07 BMatP= 9.41D-06
 IDIUse=1 WtCom= 1.00D+00 WtEn= 0.00D+00
 Coeff-Com: -0.255D-03 0.549D-03-0.558D-02-0.193D-01-0.272D-01 0.405D-01
 Coeff-Com:  0.236D+00 0.775D+00
 Coeff:     -0.255D-03 0.549D-03-0.558D-02-0.193D-01-0.272D-01 0.405D-01
 Coeff:      0.236D+00 0.775D+00
 Gap=     0.163 Goal=   None    Shift=    0.000
 RMSDP=9.70D-06 MaxDP=1.41D-04 DE=-9.90D-06 OVMax= 4.21D-04

 Initial convergence to 1.0D-05 achieved.  Increase integral accuracy.
 Cycle   9  Pass 1  IDiag  1:
 E= -532.753496892953     Delta-E=       -0.000274774918 Rises=F Damp=F
 DIIS: error= 7.96D-05 at cycle   1 NSaved=   1.
 NSaved= 1 IEnMin= 1 EnMin= -532.753496892953     IErMin= 1 ErrMin= 7.96D-05
 ErrMax= 7.96D-05  0.00D+00 EMaxC= 1.00D-01 BMatC= 1.79D-06 BMatP= 1.79D-06
 IDIUse=1 WtCom= 1.00D+00 WtEn= 0.00D+00
 Coeff-Com:  0.100D+01
 Coeff:      0.100D+01
 Gap=     0.163 Goal=   None    Shift=    0.000
 RMSDP=9.70D-06 MaxDP=1.41D-04 DE=-2.75D-04 OVMax= 3.83D-04

 Cycle  10  Pass 1  IDiag  1:
 E= -532.753498420879     Delta-E=       -0.000001527926 Rises=F Damp=F
 DIIS: error= 6.16D-05 at cycle   2 NSaved=   2.
 NSaved= 2 IEnMin= 2 EnMin= -532.753498420879     IErMin= 2 ErrMin= 6.16D-05
 ErrMax= 6.16D-05  0.00D+00 EMaxC= 1.00D-01 BMatC= 6.40D-07 BMatP= 1.79D-06
 IDIUse=1 WtCom= 1.00D+00 WtEn= 0.00D+00
 Coeff-Com:  0.320D+00 0.680D+00
 Coeff:      0.320D+00 0.680D+00
 Gap=     0.163 Goal=   None    Shift=    0.000
 RMSDP=9.77D-06 MaxDP=2.49D-04 DE=-1.53D-06 OVMax= 3.51D-04

 Cycle  11  Pass 1  IDiag  1:
 E= -532.753498693223     Delta-E=       -0.000000272344 Rises=F Damp=F
 DIIS: error= 6.17D-05 at cycle   3 NSaved=   3.
 NSaved= 3 IEnMin= 3 EnMin= -532.753498693223     IErMin= 2 ErrMin= 6.16D-05
 ErrMax= 6.17D-05  0.00D+00 EMaxC= 1.00D-01 BMatC= 3.98D-07 BMatP= 6.40D-07
 IDIUse=1 WtCom= 1.00D+00 WtEn= 0.00D+00
 Coeff-Com:  0.212D-01 0.434D+00 0.544D+00
 Coeff:      0.212D-01 0.434D+00 0.544D+00
 Gap=     0.163 Goal=   None    Shift=    0.000
 RMSDP=5.46D-06 MaxDP=2.23D-04 DE=-2.72D-07 OVMax= 3.64D-04

 Cycle  12  Pass 1  IDiag  1:
 E= -532.753498976854     Delta-E=       -0.000000283632 Rises=F Damp=F
 DIIS: error= 2.60D-05 at cycle   4 NSaved=   4.
 NSaved= 4 IEnMin= 4 EnMin= -532.753498976854     IErMin= 4 ErrMin= 2.60D-05
 ErrMax= 2.60D-05  0.00D+00 EMaxC= 1.00D-01 BMatC= 6.39D-08 BMatP= 3.98D-07
 IDIUse=1 WtCom= 1.00D+00 WtEn= 0.00D+00
 Coeff-Com: -0.387D-01 0.176D+00 0.354D+00 0.509D+00
 Coeff:     -0.387D-01 0.176D+00 0.354D+00 0.509D+00
 Gap=     0.163 Goal=   None    Shift=    0.000
 RMSDP=1.97D-06 MaxDP=6.32D-05 DE=-2.84D-07 OVMax= 1.11D-04

 Cycle  13  Pass 1  IDiag  1:
 E= -532.753499038662     Delta-E=       -0.000000061808 Rises=F Damp=F
 DIIS: error= 2.92D-06 at cycle   5 NSaved=   5.
 NSaved= 5 IEnMin= 5 EnMin= -532.753499038662     IErMin= 5 ErrMin= 2.92D-06
 ErrMax= 2.92D-06  0.00D+00 EMaxC= 1.00D-01 BMatC= 8.24D-10 BMatP= 6.39D-08
 IDIUse=1 WtCom= 1.00D+00 WtEn= 0.00D+00
 Coeff-Com: -0.108D-01 0.199D-01 0.545D-01 0.128D+00 0.808D+00
 Coeff:     -0.108D-01 0.199D-01 0.545D-01 0.128D+00 0.808D+00
 Gap=     0.163 Goal=   None    Shift=    0.000
 RMSDP=4.73D-07 MaxDP=1.01D-05 DE=-6.18D-08 OVMax= 1.98D-05

 Cycle  14  Pass 1  IDiag  1:
 E= -532.753499040186     Delta-E=       -0.000000001524 Rises=F Damp=F
 DIIS: error= 1.35D-06 at cycle   6 NSaved=   6.
 NSaved= 6 IEnMin= 6 EnMin= -532.753499040186     IErMin= 6 ErrMin= 1.35D-06
 ErrMax= 1.35D-06  0.00D+00 EMaxC= 1.00D-01 BMatC= 2.81D-10 BMatP= 8.24D-10
 IDIUse=1 WtCom= 1.00D+00 WtEn= 0.00D+00
 Coeff-Com:  0.363D-02-0.272D-01-0.479D-01-0.493D-01 0.383D+00 0.738D+00
 Coeff:      0.363D-02-0.272D-01-0.479D-01-0.493D-01 0.383D+00 0.738D+00
 Gap=     0.163 Goal=   None    Shift=    0.000
 RMSDP=2.78D-07 MaxDP=4.42D-06 DE=-1.52D-09 OVMax= 1.13D-05

 Cycle  15  Pass 1  IDiag  1:
 E= -532.753499040772     Delta-E=       -0.000000000586 Rises=F Damp=F
 DIIS: error= 8.46D-07 at cycle   7 NSaved=   7.
 NSaved= 7 IEnMin= 7 EnMin= -532.753499040772     IErMin= 7 ErrMin= 8.46D-07
 ErrMax= 8.46D-07  0.00D+00 EMaxC= 1.00D-01 BMatC= 2.23D-11 BMatP= 2.81D-10
 IDIUse=1 WtCom= 1.00D+00 WtEn= 0.00D+00
 Coeff-Com:  0.104D-02-0.302D-02-0.489D-02-0.193D-01-0.814D-01 0.245D-01
 Coeff-Com:  0.108D+01
 Coeff:      0.104D-02-0.302D-02-0.489D-02-0.193D-01-0.814D-01 0.245D-01
 Coeff:      0.108D+01
 Gap=     0.163 Goal=   None    Shift=    0.000
 RMSDP=1.71D-07 MaxDP=3.34D-06 DE=-5.86D-10 OVMax= 8.44D-06

 Cycle  16  Pass 1  IDiag  1:
 E= -532.753499040911     Delta-E=       -0.000000000140 Rises=F Damp=F
 DIIS: error= 4.75D-07 at cycle   8 NSaved=   8.
 NSaved= 8 IEnMin= 8 EnMin= -532.753499040911     IErMin= 8 ErrMin= 4.75D-07
 ErrMax= 4.75D-07  0.00D+00 EMaxC= 1.00D-01 BMatC= 1.06D-11 BMatP= 2.23D-11
 IDIUse=1 WtCom= 1.00D+00 WtEn= 0.00D+00
 Coeff-Com:  0.838D-04 0.271D-02 0.505D-02-0.287D-02-0.111D+00-0.113D+00
 Coeff-Com:  0.601D+00 0.617D+00
 Coeff:      0.838D-04 0.271D-02 0.505D-02-0.287D-02-0.111D+00-0.113D+00
 Coeff:      0.601D+00 0.617D+00
 Gap=     0.163 Goal=   None    Shift=    0.000
 RMSDP=6.78D-08 MaxDP=1.51D-06 DE=-1.40D-10 OVMax= 3.75D-06

 Cycle  17  Pass 1  IDiag  1:
 E= -532.753499040947     Delta-E=       -0.000000000035 Rises=F Damp=F
 DIIS: error= 3.05D-07 at cycle   9 NSaved=   9.
 NSaved= 9 IEnMin= 9 EnMin= -532.753499040947     IErMin= 9 ErrMin= 3.05D-07
 ErrMax= 3.05D-07  0.00D+00 EMaxC= 1.00D-01 BMatC= 1.88D-12 BMatP= 1.06D-11
 IDIUse=1 WtCom= 1.00D+00 WtEn= 0.00D+00
 Coeff-Com: -0.354D-03 0.258D-02 0.468D-02 0.543D-02-0.329D-01-0.689D-01
 Coeff-Com: -0.174D-01 0.228D+00 0.879D+00
 Coeff:     -0.354D-03 0.258D-02 0.468D-02 0.543D-02-0.329D-01-0.689D-01
 Coeff:     -0.174D-01 0.228D+00 0.879D+00
 Gap=     0.163 Goal=   None    Shift=    0.000
 RMSDP=5.01D-08 MaxDP=1.35D-06 DE=-3.55D-11 OVMax= 3.11D-06

 Cycle  18  Pass 1  IDiag  1:
 E= -532.753499040964     Delta-E=       -0.000000000017 Rises=F Damp=F
 DIIS: error= 1.57D-07 at cycle  10 NSaved=  10.
 NSaved=10 IEnMin=10 EnMin= -532.753499040964     IErMin=10 ErrMin= 1.57D-07
 ErrMax= 1.57D-07  0.00D+00 EMaxC= 1.00D-01 BMatC= 7.58D-13 BMatP= 1.88D-12
 IDIUse=1 WtCom= 1.00D+00 WtEn= 0.00D+00
 Coeff-Com: -0.198D-03 0.457D-03 0.862D-03 0.334D-02 0.160D-01-0.323D-02
 Coeff-Com: -0.180D+00-0.840D-01 0.465D+00 0.782D+00
 Coeff:     -0.198D-03 0.457D-03 0.862D-03 0.334D-02 0.160D-01-0.323D-02
 Coeff:     -0.180D+00-0.840D-01 0.465D+00 0.782D+00
 Gap=     0.163 Goal=   None    Shift=    0.000
 RMSDP=2.89D-08 MaxDP=8.44D-07 DE=-1.71D-11 OVMax= 1.85D-06

 Cycle  19  Pass 1  IDiag  1:
 E= -532.753499040963     Delta-E=        0.000000000000 Rises=F Damp=F
 DIIS: error= 6.60D-08 at cycle  11 NSaved=  11.
 NSaved=11 IEnMin=10 EnMin= -532.753499040964     IErMin=11 ErrMin= 6.60D-08
 ErrMax= 6.60D-08  0.00D+00 EMaxC= 1.00D-01 BMatC= 9.66D-14 BMatP= 7.58D-13
 IDIUse=1 WtCom= 1.00D+00 WtEn= 0.00D+00
 Coeff-Com:  0.390D-04-0.509D-03-0.891D-03-0.791D-03 0.112D-01 0.153D-01
 Coeff-Com: -0.256D-01-0.783D-01-0.147D+00 0.162D+00 0.106D+01
 Coeff:      0.390D-04-0.509D-03-0.891D-03-0.791D-03 0.112D-01 0.153D-01
 Coeff:     -0.256D-01-0.783D-01-0.147D+00 0.162D+00 0.106D+01
 Gap=     0.163 Goal=   None    Shift=    0.000
 RMSDP=1.54D-08 MaxDP=4.87D-07 DE= 4.55D-13 OVMax= 1.00D-06

 Cycle  20  Pass 1  IDiag  1:
 E= -532.753499040975     Delta-E=       -0.000000000011 Rises=F Damp=F
 DIIS: error= 1.69D-08 at cycle  12 NSaved=  12.
 NSaved=12 IEnMin=12 EnMin= -532.753499040975     IErMin=12 ErrMin= 1.69D-08
 ErrMax= 1.69D-08  0.00D+00 EMaxC= 1.00D-01 BMatC= 1.78D-14 BMatP= 9.66D-14
 IDIUse=1 WtCom= 1.00D+00 WtEn= 0.00D+00
 Coeff-Com:  0.482D-04-0.269D-03-0.503D-03-0.830D-03 0.150D-02 0.596D-02
 Coeff-Com:  0.211D-01-0.179D-01-0.127D+00-0.566D-01 0.398D+00 0.776D+00
 Coeff:      0.482D-04-0.269D-03-0.503D-03-0.830D-03 0.150D-02 0.596D-02
 Coeff:      0.211D-01-0.179D-01-0.127D+00-0.566D-01 0.398D+00 0.776D+00
 Gap=     0.163 Goal=   None    Shift=    0.000
 RMSDP=4.00D-09 MaxDP=1.19D-07 DE=-1.11D-11 OVMax= 2.35D-07

 SCF Done:  E(RM062X) =  -532.753499041     A.U. after   20 cycles
            NFock= 20  Conv=0.40D-08     -V/T= 2.0061
 KE= 5.295377058527D+02 PE=-2.398431526707D+03 EE= 7.532250780637D+02
 Leave Link  502 at Thu Mar 12 19:39:09 2020, MaxMem=    33554432 cpu:        68.4
 (Enter /usr/local/gaussian09d01/g09/l601.exe)
 Copying SCF densities to generalized density rwf, IOpCl= 0 IROHF=0.

 **********************************************************************

            Population analysis using the SCF density.

 **********************************************************************

 Orbital symmetries:
       Occupied  (A) (A) (A) (A) (A) (A) (A) (A) (A) (A) (A) (A)
                 (A) (A) (A) (A) (A) (A) (A) (A) (A) (A) (A) (A)
                 (A) (A) (A) (A) (A) (A) (A) (A) (A) (A) (A) (A)
                 (A) (A) (A) (A)
       Virtual   (A) (A) (A) (A) (A) (A) (A) (A) (A) (A) (A) (A)
                 (A) (A) (A) (A) (A) (A) (A) (A) (A) (A) (A) (A)
                 (A) (A) (A) (A) (A) (A) (A) (A) (A) (A) (A) (A)
                 (A) (A) (A) (A) (A) (A) (A) (A) (A) (A) (A) (A)
                 (A) (A) (A) (A) (A) (A) (A) (A) (A) (A) (A) (A)
                 (A) (A) (A) (A) (A) (A) (A) (A) (A) (A) (A) (A)
                 (A) (A) (A) (A)
 The electronic state is 1-A.
 Alpha  occ. eigenvalues --  -19.88340 -19.83540 -19.79921 -14.97117 -14.92325
 Alpha  occ. eigenvalues --  -10.87150 -10.85578 -10.77192 -10.74523 -10.62885
 Alpha  occ. eigenvalues --   -1.39737  -1.37043  -1.30663  -1.22491  -1.17590
 Alpha  occ. eigenvalues --   -1.05283  -0.95822  -0.89863  -0.87419  -0.84126
 Alpha  occ. eigenvalues --   -0.81443  -0.77665  -0.73563  -0.72881  -0.72493
 Alpha  occ. eigenvalues --   -0.70994  -0.68609  -0.67284  -0.65205  -0.63295
 Alpha  occ. eigenvalues --   -0.62656  -0.60085  -0.56887  -0.56679  -0.56110
 Alpha  occ. eigenvalues --   -0.55716  -0.54071  -0.53302  -0.50950  -0.48563
 Alpha virt. eigenvalues --   -0.32269  -0.14107  -0.11650  -0.03028  -0.00498
 Alpha virt. eigenvalues --    0.00039   0.01637   0.02519   0.04378   0.05768
 Alpha virt. eigenvalues --    0.07430   0.07873   0.08572   0.10184   0.11309
 Alpha virt. eigenvalues --    0.11473   0.12834   0.13790   0.16214   0.18927
 Alpha virt. eigenvalues --    0.20470   0.25578   0.29086   0.39664   0.42594
 Alpha virt. eigenvalues --    0.44637   0.46898   0.47625   0.48446   0.48987
 Alpha virt. eigenvalues --    0.50550   0.52612   0.52782   0.55134   0.59063
 Alpha virt. eigenvalues --    0.59345   0.61128   0.62664   0.64750   0.65276
 Alpha virt. eigenvalues --    0.68147   0.70646   0.72003   0.75789   0.78098
 Alpha virt. eigenvalues --    0.78845   0.80106   0.82093   0.83769   0.84791
 Alpha virt. eigenvalues --    0.87213   0.87747   0.88428   0.88797   0.89832
 Alpha virt. eigenvalues --    0.92418   0.92960   0.94887   0.95652   0.97466
 Alpha virt. eigenvalues --    1.00964   1.03102   1.04511   1.09966   1.11838
 Alpha virt. eigenvalues --    1.14057   1.19752   1.23590   1.30873   1.33557
 Alpha virt. eigenvalues --    1.42112   1.52022   1.64414   1.75188   1.76936
 Alpha virt. eigenvalues --    1.85949
          Condensed to atoms (all electrons):
               1          2          3          4          5          6
     1  C    5.188826   0.375325   0.371604   0.000000   0.370286   0.371224
     2  H    0.375325   0.470958  -0.018078   0.000000  -0.019952  -0.020312
     3  H    0.371604  -0.018078   0.521649   0.000000  -0.029565  -0.029996
     4  H    0.000000   0.000000   0.000000   0.447964   0.000000   0.000000
     5  H    0.370286  -0.019952  -0.029565   0.000000   0.538441  -0.032107
     6  H    0.371224  -0.020312  -0.029996   0.000000  -0.032107   0.543695
     7  C    0.000000   0.000000  -0.000001  -0.011943   0.000000   0.000000
     8  C   -0.000005   0.000001   0.000084   0.000408  -0.000011  -0.000007
     9  C    0.000242   0.000038   0.001507   0.000001  -0.000150  -0.000130
    10  N    0.000000   0.000000  -0.000001   0.000004   0.000000   0.000000
    11  O   -0.001335   0.000015   0.003363   0.000094   0.000043   0.000016
    12  O   -0.005178   0.000175  -0.001638   0.000000  -0.000755  -0.000626
    13  C    0.000000   0.000000   0.000000   0.009416   0.000000   0.000000
    14  H    0.000000   0.000000   0.000000   0.000287   0.000000   0.000000
    15  H    0.000000   0.000000   0.000000   0.007715   0.000000   0.000000
    16  H    0.000001   0.000000  -0.000002  -0.000004   0.000000   0.000000
    17  H    0.000000   0.000000   0.000000  -0.000016   0.000000   0.000000
    18  H   -0.000001   0.000000   0.000000   0.000000   0.000000   0.000000
    19  H    0.026629  -0.000923   0.002072   0.000000   0.005116   0.004647
    20  N    0.000000   0.000000   0.000000   0.001903   0.000000   0.000000
    21  O    0.000000   0.000000   0.000000   0.117087   0.000000   0.000000
    22  H    0.000000   0.000000   0.000000   0.000000   0.000000   0.000000
    23  H    0.000000   0.000000   0.000000  -0.000028   0.000000   0.000000
               7          8          9         10         11         12
     1  C    0.000000  -0.000005   0.000242   0.000000  -0.001335  -0.005178
     2  H    0.000000   0.000001   0.000038   0.000000   0.000015   0.000175
     3  H   -0.000001   0.000084   0.001507  -0.000001   0.003363  -0.001638
     4  H   -0.011943   0.000408   0.000001   0.000004   0.000094   0.000000
     5  H    0.000000  -0.000011  -0.000150   0.000000   0.000043  -0.000755
     6  H    0.000000  -0.000007  -0.000130   0.000000   0.000016  -0.000626
     7  C    5.417855   0.213699  -0.047660  -0.070311   0.008267   0.005342
     8  C    0.213699   5.576475   0.151972   0.192216  -0.124387  -0.148474
     9  C   -0.047660   0.151972   4.756765  -0.049670   0.497744   0.192297
    10  N   -0.070311   0.192216  -0.049670   7.093894   0.002187   0.001820
    11  O    0.008267  -0.124387   0.497744   0.002187   8.122343  -0.108760
    12  O    0.005342  -0.148474   0.192297   0.001820  -0.108760   8.422272
    13  C    0.251577  -0.017891  -0.008176  -0.006573   0.010066  -0.000561
    14  H    0.376269  -0.028250   0.005692  -0.001548   0.000405  -0.000029
    15  H    0.364811  -0.027658  -0.002361   0.003986   0.004710   0.000131
    16  H   -0.043714   0.385219  -0.027581  -0.036399   0.001119   0.000965
    17  H   -0.009236  -0.011643  -0.000519   0.092768   0.000207  -0.000075
    18  H    0.004809  -0.034202  -0.007526   0.320636   0.000222   0.013181
    19  H   -0.000158   0.005504  -0.018645  -0.000119  -0.000564   0.237026
    20  N   -0.095940   0.007165   0.000617  -0.075932  -0.003343   0.000061
    21  O   -0.058058   0.002447  -0.000630  -0.000151  -0.001592  -0.000001
    22  H   -0.000980  -0.029173   0.004172   0.322110  -0.000081  -0.000005
    23  H    0.004073  -0.000241  -0.000101   0.001538   0.000029   0.000003
              13         14         15         16         17         18
     1  C    0.000000   0.000000   0.000000   0.000001   0.000000  -0.000001
     2  H    0.000000   0.000000   0.000000   0.000000   0.000000   0.000000
     3  H    0.000000   0.000000   0.000000  -0.000002   0.000000   0.000000
     4  H    0.009416   0.000287   0.007715  -0.000004  -0.000016   0.000000
     5  H    0.000000   0.000000   0.000000   0.000000   0.000000   0.000000
     6  H    0.000000   0.000000   0.000000   0.000000   0.000000   0.000000
     7  C    0.251577   0.376269   0.364811  -0.043714  -0.009236   0.004809
     8  C   -0.017891  -0.028250  -0.027658   0.385219  -0.011643  -0.034202
     9  C   -0.008176   0.005692  -0.002361  -0.027581  -0.000519  -0.007526
    10  N   -0.006573  -0.001548   0.003986  -0.036399   0.092768   0.320636
    11  O    0.010066   0.000405   0.004710   0.001119   0.000207   0.000222
    12  O   -0.000561  -0.000029   0.000131   0.000965  -0.000075   0.013181
    13  C    4.637595  -0.034831  -0.033754   0.004073  -0.013094   0.000149
    14  H   -0.034831   0.450768  -0.017408  -0.003287  -0.000256  -0.000053
    15  H   -0.033754  -0.017408   0.493811  -0.000655   0.000360  -0.000110
    16  H    0.004073  -0.003287  -0.000655   0.468465   0.000975   0.000977
    17  H   -0.013094  -0.000256   0.000360   0.000975   0.258415  -0.000508
    18  H    0.000149  -0.000053  -0.000110   0.000977  -0.000508   0.339786
    19  H   -0.000009   0.000002  -0.000002  -0.000255  -0.000020  -0.000266
    20  N    0.303406  -0.001404   0.004699  -0.000306   0.232082   0.000350
    21  O    0.335971   0.000953  -0.002263  -0.000066   0.001514   0.000002
    22  H   -0.000205   0.001644  -0.000078  -0.003877  -0.001509  -0.021075
    23  H   -0.022143  -0.000137  -0.000071   0.000011  -0.002976  -0.000014
              19         20         21         22         23
     1  C    0.026629   0.000000   0.000000   0.000000   0.000000
     2  H   -0.000923   0.000000   0.000000   0.000000   0.000000
     3  H    0.002072   0.000000   0.000000   0.000000   0.000000
     4  H    0.000000   0.001903   0.117087   0.000000  -0.000028
     5  H    0.005116   0.000000   0.000000   0.000000   0.000000
     6  H    0.004647   0.000000   0.000000   0.000000   0.000000
     7  C   -0.000158  -0.095940  -0.058058  -0.000980   0.004073
     8  C    0.005504   0.007165   0.002447  -0.029173  -0.000241
     9  C   -0.018645   0.000617  -0.000630   0.004172  -0.000101
    10  N   -0.000119  -0.075932  -0.000151   0.322110   0.001538
    11  O   -0.000564  -0.003343  -0.001592  -0.000081   0.000029
    12  O    0.237026   0.000061  -0.000001  -0.000005   0.000003
    13  C   -0.000009   0.303406   0.335971  -0.000205  -0.022143
    14  H    0.000002  -0.001404   0.000953   0.001644  -0.000137
    15  H   -0.000002   0.004699  -0.002263  -0.000078  -0.000071
    16  H   -0.000255  -0.000306  -0.000066  -0.003877   0.000011
    17  H   -0.000020   0.232082   0.001514  -0.001509  -0.002976
    18  H   -0.000266   0.000350   0.000002  -0.021075  -0.000014
    19  H    0.276495   0.000010   0.000000   0.000017  -0.000001
    20  N    0.000010   7.138259  -0.118980   0.000943   0.308558
    21  O    0.000000  -0.118980   8.160446   0.000003  -0.000866
    22  H    0.000017   0.000943   0.000003   0.371922  -0.000022
    23  H   -0.000001   0.308558  -0.000866  -0.000022   0.301147
 Mulliken charges:
               1
     1  C   -0.697618
     2  H    0.212754
     3  H    0.179002
     4  H    0.427114
     5  H    0.168653
     6  H    0.163596
     7  C   -0.308699
     8  C   -0.113247
     9  C    0.552103
    10  N   -0.790453
    11  O   -0.410769
    12  O   -0.607170
    13  C    0.584983
    14  H    0.251183
    15  H    0.204136
    16  H    0.254342
    17  H    0.453532
    18  H    0.383641
    19  H    0.463442
    20  N   -0.702147
    21  O   -0.435814
    22  H    0.356196
    23  H    0.411239
 Sum of Mulliken charges =   1.00000
 Mulliken charges with hydrogens summed into heavy atoms:
               1
     1  C    0.026387
     7  C    0.146621
     8  C    0.141095
     9  C    0.552103
    10  N   -0.050616
    11  O   -0.410769
    12  O   -0.143728
    13  C    0.584983
    20  N    0.162624
    21  O   -0.008701
 Electronic spatial extent (au):  <R**2>=           2003.6741
 Charge=              1.0000 electrons
 Dipole moment (field-independent basis, Debye):
    X=              4.9399    Y=              0.7546    Z=             -1.7367  Tot=              5.2904
 Quadrupole moment (field-independent basis, Debye-Ang):
   XX=            -33.7183   YY=            -43.9956   ZZ=            -44.3072
   XY=             -3.8298   XZ=             -7.0107   YZ=              6.2198
 Traceless Quadrupole moment (field-independent basis, Debye-Ang):
   XX=              6.9554   YY=             -3.3219   ZZ=             -3.6335
   XY=             -3.8298   XZ=             -7.0107   YZ=              6.2198
 Octapole moment (field-independent basis, Debye-Ang**2):
  XXX=            -21.9043  YYY=              1.0232  ZZZ=              4.5309  XYY=             34.1810
  XXY=            -23.0965  XXZ=             -8.3546  XZZ=             32.1454  YZZ=            -18.0015
  YYZ=            -21.9103  XYZ=             18.2448
 Hexadecapole moment (field-independent basis, Debye-Ang**3):
 XXXX=          -1449.9183 YYYY=           -388.8986 ZZZZ=           -191.2341 XXXY=             13.9353
 XXXZ=            -48.6399 YYYX=            -52.1647 YYYZ=             83.5985 ZZZX=             10.8211
 ZZZY=             18.6310 XXYY=           -310.0602 XXZZ=           -270.8885 YYZZ=            -79.2002
 XXYZ=             36.6159 YYXZ=            -63.1486 ZZXY=            -57.3993
 N-N= 5.829152437496D+02 E-N=-2.398431525709D+03  KE= 5.295377058527D+02
 No NMR shielding tensors so no spin-rotation constants.
 Leave Link  601 at Thu Mar 12 19:39:09 2020, MaxMem=    33554432 cpu:         0.1
 (Enter /usr/local/gaussian09d01/g09/l9999.exe)
 1\1\GINC-KARURA\SP\RM062X\6-31G\C5H13N2O3(1+)\RTAKE\12-Mar-2020\0\\#p 
 M062X/6-31G\\chk calc\\1,1\C,0,3.824482709,-1.14219544,1.17225369\H,0,
 4.799113079,-1.62961423,1.173808707\H,0,3.053614027,-1.916312598,1.160
 804944\H,0,-2.743977445,-3.618312414,-0.453428966\H,0,3.75960642,-0.53
 291794,2.07824618\H,0,3.765323683,-0.52154146,0.273951194\C,0,-2.40154
 2122,-0.705499021,0.492562549\C,0,-1.33365594,0.193207044,1.141270536\
 C,0,0.021967089,-0.47033751,0.950186539\N,0,-1.303304814,1.529148773,0
 .515945207\O,0,0.155929117,-1.611462803,0.51692019\O,0,1.024922388,0.3
 53392554,1.298656\C,0,-2.121889445,-0.918337302,-0.967112723\H,0,-3.39
 229932,-0.247402335,0.596496855\H,0,-2.419176945,-1.669900059,1.004436
 439\H,0,-1.526304416,0.239474424,2.221387894\H,0,-1.503902114,0.960750
 702,-1.170400229\H,0,-0.410560182,1.997532273,0.666150752\H,0,1.924402
 159,-0.039925506,1.230818645\N,0,-1.700457396,0.069239192,-1.694919761
 \O,0,-2.336854815,-2.071648312,-1.575178364\H,0,-2.071900591,2.1285565
 43,0.807834339\H,0,-1.514408501,-0.054510917,-2.685235696\\Version=ES6
 4L-G09RevD.01\State=1-A\HF=-532.753499\RMSD=4.004e-09\Dipole=-2.080123
 1,-0.059301,-0.0425548\Quadrupole=5.7960275,1.3107829,-7.1068103,5.542
 4397,1.6937117,-0.4812395\PG=C01 [X(C5H13N2O3)]\\@


 HE THAT FOLLOWS NATURE IS NEVER LOST.

                             -- BACON
 Job cpu time:       0 days  0 hours  1 minutes  9.8 seconds.
 File lengths (MBytes):  RWF=      7 Int=      0 D2E=      0 Chk=      2 Scr=      1
 Normal termination of Gaussian 09 at Thu Mar 12 19:39:09 2020.
