 Entering Gaussian System, Link 0=g09
 Input=./h4_o21_16.gjf
 Output=./h4_o21_16.log
 Initial command:
 /usr/local/gaussian09d01/g09/l1.exe "/scr/Gau-22656.inp" -scrdir="/scr/"
 Entering Link 1 = /usr/local/gaussian09d01/g09/l1.exe PID=     22657.
  
 Copyright (c) 1988,1990,1992,1993,1995,1998,2003,2009,2013,
            Gaussian, Inc.  All Rights Reserved.
  
 This is part of the Gaussian(R) 09 program.  It is based on
 the Gaussian(R) 03 system (copyright 2003, Gaussian, Inc.),
 the Gaussian(R) 98 system (copyright 1998, Gaussian, Inc.),
 the Gaussian(R) 94 system (copyright 1995, Gaussian, Inc.),
 the Gaussian 92(TM) system (copyright 1992, Gaussian, Inc.),
 the Gaussian 90(TM) system (copyright 1990, Gaussian, Inc.),
 the Gaussian 88(TM) system (copyright 1988, Gaussian, Inc.),
 the Gaussian 86(TM) system (copyright 1986, Carnegie Mellon
 University), and the Gaussian 82(TM) system (copyright 1983,
 Carnegie Mellon University). Gaussian is a federally registered
 trademark of Gaussian, Inc.
  
 This software contains proprietary and confidential information,
 including trade secrets, belonging to Gaussian, Inc.
  
 This software is provided under written license and may be
 used, copied, transmitted, or stored only in accord with that
 written license.
  
 The following legend is applicable only to US Government
 contracts under FAR:
  
                    RESTRICTED RIGHTS LEGEND
  
 Use, reproduction and disclosure by the US Government is
 subject to restrictions as set forth in subparagraphs (a)
 and (c) of the Commercial Computer Software - Restricted
 Rights clause in FAR 52.227-19.
  
 Gaussian, Inc.
 340 Quinnipiac St., Bldg. 40, Wallingford CT 06492
  
  
 ---------------------------------------------------------------
 Warning -- This program may not be used in any manner that
 competes with the business of Gaussian, Inc. or will provide
 assistance to any competitor of Gaussian, Inc.  The licensee
 of this program is prohibited from giving any competitor of
 Gaussian, Inc. access to this program.  By using this program,
 the user acknowledges that Gaussian, Inc. is engaged in the
 business of creating and licensing software in the field of
 computational chemistry and represents and warrants to the
 licensee that it is not a competitor of Gaussian, Inc. and that
 it will not use this program in any manner prohibited above.
 ---------------------------------------------------------------
  

 Cite this work as:
 Gaussian 09, Revision D.01,
 M. J. Frisch, G. W. Trucks, H. B. Schlegel, G. E. Scuseria, 
 M. A. Robb, J. R. Cheeseman, G. Scalmani, V. Barone, B. Mennucci, 
 G. A. Petersson, H. Nakatsuji, M. Caricato, X. Li, H. P. Hratchian, 
 A. F. Izmaylov, J. Bloino, G. Zheng, J. L. Sonnenberg, M. Hada, 
 M. Ehara, K. Toyota, R. Fukuda, J. Hasegawa, M. Ishida, T. Nakajima, 
 Y. Honda, O. Kitao, H. Nakai, T. Vreven, J. A. Montgomery, Jr., 
 J. E. Peralta, F. Ogliaro, M. Bearpark, J. J. Heyd, E. Brothers, 
 K. N. Kudin, V. N. Staroverov, T. Keith, R. Kobayashi, J. Normand, 
 K. Raghavachari, A. Rendell, J. C. Burant, S. S. Iyengar, J. Tomasi, 
 M. Cossi, N. Rega, J. M. Millam, M. Klene, J. E. Knox, J. B. Cross, 
 V. Bakken, C. Adamo, J. Jaramillo, R. Gomperts, R. E. Stratmann, 
 O. Yazyev, A. J. Austin, R. Cammi, C. Pomelli, J. W. Ochterski, 
 R. L. Martin, K. Morokuma, V. G. Zakrzewski, G. A. Voth, 
 P. Salvador, J. J. Dannenberg, S. Dapprich, A. D. Daniels, 
 O. Farkas, J. B. Foresman, J. V. Ortiz, J. Cioslowski, 
 and D. J. Fox, Gaussian, Inc., Wallingford CT, 2013.
 
 ******************************************
 Gaussian 09:  ES64L-G09RevD.01 24-Apr-2013
                12-Mar-2020 
 ******************************************
 --------------
 #p M062X/6-31G
 --------------
 1/38=1/1;
 2/12=2,17=6,18=5,40=1/2;
 3/5=1,6=6,11=2,16=1,25=1,30=1,74=-55/1,2,3;
 4//1;
 5/5=2,38=5/2;
 6/7=2,8=2,9=2,10=2,28=1/1;
 99/5=1,9=1/99;
 Leave Link    1 at Thu Mar 12 19:33:49 2020, MaxMem=           0 cpu:         0.0
 (Enter /usr/local/gaussian09d01/g09/l101.exe)
 --------
 chk calc
 --------
 Symbolic Z-matrix:
 Charge =  1 Multiplicity = 1
 C                     3.82448  -1.1422    1.17225 
 H                     4.79911  -1.62961   1.17381 
 H                     3.05361  -1.91631   1.1608 
 H                    -2.66255  -3.30898  -0.67778 
 H                     3.75961  -0.53292   2.07825 
 H                     3.76532  -0.52154   0.27395 
 C                    -2.40154  -0.7055    0.49256 
 C                    -1.33366   0.19321   1.14127 
 C                     0.02197  -0.47034   0.95019 
 N                    -1.3033    1.52915   0.51595 
 O                     0.15593  -1.61146   0.51692 
 O                     1.02492   0.35339   1.29866 
 C                    -2.12189  -0.91834  -0.96711 
 H                    -3.3923   -0.2474    0.5965 
 H                    -2.41918  -1.6699    1.00444 
 H                    -1.5263    0.23947   2.22139 
 H                    -1.5039    0.96075  -1.1704 
 H                    -0.41056   1.99753   0.66615 
 H                     1.9244   -0.03993   1.23082 
 N                    -1.70046   0.06924  -1.69492 
 O                    -2.33685  -2.07165  -1.57518 
 H                    -2.0719    2.12856   0.80783 
 H                    -1.51441  -0.05451  -2.68524 
 
 NAtoms=     23 NQM=       23 NQMF=       0 NMMI=      0 NMMIF=      0
                NMic=       0 NMicF=      0.
                    Isotopes and Nuclear Properties:
 (Nuclear quadrupole moments (NQMom) in fm**2, nuclear magnetic moments (NMagM)
  in nuclear magnetons)

  Atom         1           2           3           4           5           6           7           8           9          10
 IAtWgt=          12           1           1           1           1           1          12          12          12          14
 AtmWgt=  12.0000000   1.0078250   1.0078250   1.0078250   1.0078250   1.0078250  12.0000000  12.0000000  12.0000000  14.0030740
 NucSpn=           0           1           1           1           1           1           0           0           0           2
 AtZEff=   0.0000000   0.0000000   0.0000000   0.0000000   0.0000000   0.0000000   0.0000000   0.0000000   0.0000000   0.0000000
 NQMom=    0.0000000   0.0000000   0.0000000   0.0000000   0.0000000   0.0000000   0.0000000   0.0000000   0.0000000   2.0440000
 NMagM=    0.0000000   2.7928460   2.7928460   2.7928460   2.7928460   2.7928460   0.0000000   0.0000000   0.0000000   0.4037610
 AtZNuc=   6.0000000   1.0000000   1.0000000   1.0000000   1.0000000   1.0000000   6.0000000   6.0000000   6.0000000   7.0000000

  Atom        11          12          13          14          15          16          17          18          19          20
 IAtWgt=          16          16          12           1           1           1           1           1           1          14
 AtmWgt=  15.9949146  15.9949146  12.0000000   1.0078250   1.0078250   1.0078250   1.0078250   1.0078250   1.0078250  14.0030740
 NucSpn=           0           0           0           1           1           1           1           1           1           2
 AtZEff=   0.0000000   0.0000000   0.0000000   0.0000000   0.0000000   0.0000000   0.0000000   0.0000000   0.0000000   0.0000000
 NQMom=    0.0000000   0.0000000   0.0000000   0.0000000   0.0000000   0.0000000   0.0000000   0.0000000   0.0000000   2.0440000
 NMagM=    0.0000000   0.0000000   0.0000000   2.7928460   2.7928460   2.7928460   2.7928460   2.7928460   2.7928460   0.4037610
 AtZNuc=   8.0000000   8.0000000   6.0000000   1.0000000   1.0000000   1.0000000   1.0000000   1.0000000   1.0000000   7.0000000

  Atom        21          22          23
 IAtWgt=          16           1           1
 AtmWgt=  15.9949146   1.0078250   1.0078250
 NucSpn=           0           1           1
 AtZEff=   0.0000000   0.0000000   0.0000000
 NQMom=    0.0000000   0.0000000   0.0000000
 NMagM=    0.0000000   2.7928460   2.7928460
 AtZNuc=   8.0000000   1.0000000   1.0000000
 Leave Link  101 at Thu Mar 12 19:33:49 2020, MaxMem=    33554432 cpu:         0.0
 (Enter /usr/local/gaussian09d01/g09/l202.exe)
                          Input orientation:                          
 ---------------------------------------------------------------------
 Center     Atomic      Atomic             Coordinates (Angstroms)
 Number     Number       Type             X           Y           Z
 ---------------------------------------------------------------------
      1          6           0        3.824483   -1.142195    1.172254
      2          1           0        4.799113   -1.629614    1.173809
      3          1           0        3.053614   -1.916313    1.160805
      4          1           0       -2.662553   -3.308980   -0.677779
      5          1           0        3.759606   -0.532918    2.078246
      6          1           0        3.765324   -0.521541    0.273951
      7          6           0       -2.401542   -0.705499    0.492563
      8          6           0       -1.333656    0.193207    1.141271
      9          6           0        0.021967   -0.470338    0.950187
     10          7           0       -1.303305    1.529149    0.515945
     11          8           0        0.155929   -1.611463    0.516920
     12          8           0        1.024922    0.353393    1.298656
     13          6           0       -2.121889   -0.918337   -0.967113
     14          1           0       -3.392299   -0.247402    0.596497
     15          1           0       -2.419177   -1.669900    1.004436
     16          1           0       -1.526304    0.239474    2.221388
     17          1           0       -1.503902    0.960751   -1.170400
     18          1           0       -0.410560    1.997532    0.666151
     19          1           0        1.924402   -0.039926    1.230819
     20          7           0       -1.700457    0.069239   -1.694920
     21          8           0       -2.336855   -2.071648   -1.575178
     22          1           0       -2.071901    2.128557    0.807834
     23          1           0       -1.514409   -0.054511   -2.685236
 ---------------------------------------------------------------------
                    Distance matrix (angstroms):
                    1          2          3          4          5
     1  C    0.000000
     2  H    1.089717   0.000000
     3  H    1.092532   1.768935   0.000000
     4  H    7.085140   7.869251   6.163966   0.000000
     5  H    1.093732   1.761058   1.803858   7.519729   0.000000
     6  H    1.093462   1.762467   1.799563   7.070587   1.804340
     7  C    6.278222   7.291606   5.627730   2.866346   6.364270
     8  C    5.328288   6.398015   4.868120   4.164159   5.229388
     9  C    3.867794   4.920879   3.365425   4.232589   3.904662
    10  N    5.819023   6.902903   5.591940   5.165270   5.685594
    11  O    3.756056   4.689455   2.983974   3.500387   4.072774
    12  O    3.176523   4.265257   3.047319   5.560282   2.978557
    13  C    6.323476   7.279405   5.684173   2.468036   6.634362
    14  H    7.294799   8.327247   6.682328   3.395521   7.309368
    15  H    6.268167   7.220389   5.480567   2.361284   6.373630
    16  H    5.624999   6.678459   5.171838   4.720991   5.343962
    17  H    6.188869   7.206477   5.872220   4.451488   6.363118
    18  H    5.296189   6.368250   5.250083   5.919180   5.078138
    19  H    2.197438   3.285472   2.191084   5.947236   2.080661
    20  N    6.341389   7.304801   5.890567   3.656852   6.664208
    21  O    6.809871   7.659919   6.047056   1.562816   7.272004
    22  H    6.752626   7.840192   6.538842   5.667691   6.534820
    23  H    6.675855   7.565298   6.255011   3.992454   7.122841
                    6          7          8          9         10
     6  H    0.000000
     7  C    6.173481   0.000000
     8  C    5.221370   1.539115   0.000000
     9  C    3.804292   2.477522   1.521354   0.000000
    10  N    5.473106   2.490045   1.475362   2.437797   0.000000
    11  O    3.778186   2.713305   2.421882   1.227938   3.463063
    12  O    3.053740   3.675826   2.369245   1.343831   2.723175
    13  C    6.029674   1.501385   2.510403   2.910818   2.976530
    14  H    7.170129   1.096474   2.174610   3.439769   2.743450
    15  H    6.332486   1.091969   2.160613   2.720492   3.423114
    16  H    5.689726   2.155888   1.098138   2.125307   2.149773
    17  H    5.661103   2.519443   2.441706   2.978788   1.790831
    18  H    4.892602   3.361625   2.081690   2.521535   1.019283
    19  H    2.129916   4.438671   3.267616   1.970601   3.659389
    20  N    5.839541   2.424215   2.862497   3.202261   2.678990
    21  O    6.561912   2.479133   3.676285   3.808636   4.290310
    22  H    6.432825   2.870528   2.098038   3.340478   1.017462
    23  H    6.070459   3.362914   3.838774   3.968584   3.577723
                   11         12         13         14         15
    11  O    0.000000
    12  O    2.286245   0.000000
    13  C    2.805572   4.080861   0.000000
    14  H    3.802225   4.512852   2.123434   0.000000
    15  H    2.621499   4.005259   2.130782   1.771124   0.000000
    16  H    3.026729   2.715358   3.444094   2.521757   2.433907
    17  H    3.495479   3.586095   1.988519   2.854401   3.533832
    18  H    3.656231   2.272415   3.754796   3.733008   4.195121
    19  H    2.471210   0.984055   4.687748   5.358426   4.644862
    20  N    3.341132   4.058317   1.297157   2.865865   3.290545
    21  O    3.286734   5.043936   1.321393   3.026220   2.612009
    22  H    4.362981   3.603113   3.526542   2.726407   3.819362
    23  H    3.932929   4.741938   2.016724   3.785954   4.128168
                   16         17         18         19         20
    16  H    0.000000
    17  H    3.467704   0.000000
    18  H    2.598926   2.375549   0.000000
    19  H    3.600926   4.303542   3.149942   0.000000
    20  N    3.923872   1.052876   3.310106   4.659557   0.000000
    21  O    4.517986   3.170662   5.029155   5.491796   2.236680
    22  H    2.421661   2.366391   1.672511   4.566362   3.262290
    23  H    4.915437   1.823621   4.081808   5.211632   1.015211
                   21         22         23
    21  O    0.000000
    22  H    4.836390   0.000000
    23  H    2.444890   4.156696   0.000000
 Stoichiometry    C5H13N2O3(1+)
 Framework group  C1[X(C5H13N2O3)]
 Deg. of freedom    63
 Full point group                 C1      NOp   1
 Largest Abelian subgroup         C1      NOp   1
 Largest concise Abelian subgroup C1      NOp   1
                         Standard orientation:                         
 ---------------------------------------------------------------------
 Center     Atomic      Atomic             Coordinates (Angstroms)
 Number     Number       Type             X           Y           Z
 ---------------------------------------------------------------------
      1          6           0       -4.368064   -0.942125    0.331163
      2          1           0       -5.271351   -1.545341    0.418836
      3          1           0       -3.650283   -1.486748   -0.286740
      4          1           0        2.336341   -2.491774   -1.356661
      5          1           0       -4.649809    0.007035   -0.133558
      6          1           0       -3.973818   -0.786575    1.339147
      7          6           0        1.653910    0.265229   -0.970453
      8          6           0        0.420533    1.148844   -0.711837
      9          6           0       -0.762884    0.236509   -0.426026
     10          7           0        0.629141    2.037038    0.447597
     11          8           0       -0.723844   -0.981397   -0.577725
     12          8           0       -1.822804    0.932561    0.018905
     13          6           0        1.946019   -0.621334    0.205487
     14          1           0        2.532285    0.892565   -1.163224
     15          1           0        1.476530   -0.349829   -1.855119
     16          1           0        0.191102    1.704727   -1.630675
     17          1           0        1.451378    0.824672    1.477729
     18          1           0       -0.254023    2.353150    0.846385
     19          1           0       -2.630260    0.394619    0.183218
     20          7           0        1.831037   -0.155064    1.410471
     21          8           0        2.374154   -1.864540    0.074262
     22          1           0        1.230895    2.831728    0.243662
     23          1           0        2.032637   -0.737773    2.216983
 ---------------------------------------------------------------------
 Rotational constants (GHZ):      1.7877449      0.7163320      0.6054664
 Leave Link  202 at Thu Mar 12 19:33:49 2020, MaxMem=    33554432 cpu:         0.0
 (Enter /usr/local/gaussian09d01/g09/l301.exe)
 Standard basis: 6-31G (6D, 7F)
 Ernie: Thresh=  0.10000D-02 Tol=  0.10000D-05 Strict=F.
 There are   116 symmetry adapted cartesian basis functions of A   symmetry.
 There are   116 symmetry adapted basis functions of A   symmetry.
   116 basis functions,   272 primitive gaussians,   116 cartesian basis functions
    40 alpha electrons       40 beta electrons
       nuclear repulsion energy       584.0297310195 Hartrees.
 IExCor= 4336 DFT=T Ex+Corr=M062X ExCW=0 ScaHFX=  0.540000
 ScaDFX=  1.000000  1.000000  1.000000  1.000000 ScalE2=  1.000000  1.000000
 IRadAn=      0 IRanWt=     -1 IRanGd=            0 ICorTp=0 IEmpDi=  4
 NAtoms=   23 NActive=   23 NUniq=   23 SFac= 1.00D+00 NAtFMM=   60 NAOKFM=F Big=F
 Integral buffers will be    131072 words long.
 Raffenetti 2 integral format.
 Two-electron integral symmetry is turned on.
 Leave Link  301 at Thu Mar 12 19:33:50 2020, MaxMem=    33554432 cpu:         0.0
 (Enter /usr/local/gaussian09d01/g09/l302.exe)
 NPDir=0 NMtPBC=     1 NCelOv=     1 NCel=       1 NClECP=     1 NCelD=      1
         NCelK=      1 NCelE2=     1 NClLst=     1 CellRange=     0.0.
 One-electron integrals computed using PRISM.
 NBasis=   116 RedAO= T EigKep=  3.56D-03  NBF=   116
 NBsUse=   116 1.00D-06 EigRej= -1.00D+00 NBFU=   116
 Precomputing XC quadrature grid using
 IXCGrd= 4 IRadAn=           0 IRanWt=          -1 IRanGd=           0 AccXCQ= 0.00D+00.
 Generated NRdTot=       0 NPtTot=           0 NUsed=           0 NTot=          32
 NSgBfM=   115   115   115   115   115 MxSgAt=    23 MxSgA2=    23.
 Leave Link  302 at Thu Mar 12 19:33:50 2020, MaxMem=    33554432 cpu:         0.3
 (Enter /usr/local/gaussian09d01/g09/l303.exe)
 DipDrv:  MaxL=1.
 Leave Link  303 at Thu Mar 12 19:33:50 2020, MaxMem=    33554432 cpu:         0.0
 (Enter /usr/local/gaussian09d01/g09/l401.exe)
 ExpMin= 1.61D-01 ExpMax= 5.48D+03 ExpMxC= 8.25D+02 IAcc=1 IRadAn=         1 AccDes= 0.00D+00
 Harris functional with IExCor= 1009 and IRadAn=       1 diagonalized for initial guess.
 HarFok:  IExCor= 1009 AccDes= 0.00D+00 IRadAn=         1 IDoV= 1 UseB2=F ITyADJ=14
 ICtDFT=  3500011 ScaDFX=  1.000000  1.000000  1.000000  1.000000
 FoFCou: FMM=F IPFlag=           0 FMFlag=      100000 FMFlg1=           0
         NFxFlg=           0 DoJE=T BraDBF=F KetDBF=T FulRan=T
         wScrn=  0.000000 ICntrl=     500 IOpCl=  0 I1Cent=   200000004 NGrid=           0
         NMat0=    1 NMatS0=      1 NMatT0=    0 NMatD0=    1 NMtDS0=    0 NMtDT0=    0
 Petite list used in FoFCou.
 Harris En= -532.664534901811    
 JPrj=0 DoOrth=F DoCkMO=F.
 Leave Link  401 at Thu Mar 12 19:33:51 2020, MaxMem=    33554432 cpu:         0.9
 (Enter /usr/local/gaussian09d01/g09/l502.exe)
 Closed shell SCF:
 Using DIIS extrapolation, IDIIS=  1040.
 Integral symmetry usage will be decided dynamically.
 Keep R1 ints in memory in canonical form, NReq=24030401.
 IVT=       60528 IEndB=       60528 NGot=    33554432 MDV=    10465614
 LenX=    10465614 LenY=    10451717
 Requested convergence on RMS density matrix=1.00D-08 within 128 cycles.
 Requested convergence on MAX density matrix=1.00D-06.
 Requested convergence on             energy=1.00D-06.
 No special actions if energy rises.
 FoFCou: FMM=F IPFlag=           0 FMFlag=           0 FMFlg1=           0
         NFxFlg=           0 DoJE=F BraDBF=F KetDBF=F FulRan=T
         wScrn=  0.000000 ICntrl=     600 IOpCl=  0 I1Cent=           0 NGrid=           0
         NMat0=    1 NMatS0=   6786 NMatT0=    0 NMatD0=    1 NMtDS0=    0 NMtDT0=    0
 Symmetry not used in FoFCou.
 Integral accuracy reduced to 1.0D-05 until final iterations.

 Cycle   1  Pass 0  IDiag  1:
 E= -532.536668404114    
 DIIS: error= 4.79D-02 at cycle   1 NSaved=   1.
 NSaved= 1 IEnMin= 1 EnMin= -532.536668404114     IErMin= 1 ErrMin= 4.79D-02
 ErrMax= 4.79D-02  0.00D+00 EMaxC= 1.00D-01 BMatC= 3.21D-01 BMatP= 3.21D-01
 IDIUse=3 WtCom= 5.21D-01 WtEn= 4.79D-01
 Coeff-Com:  0.100D+01
 Coeff-En:   0.100D+01
 Coeff:      0.100D+01
 Gap=     0.131 Goal=   None    Shift=    0.000
 GapD=    0.131 DampG=1.000 DampE=0.500 DampFc=0.5000 IDamp=-1.
 Damping current iteration by 5.00D-01
 RMSDP=8.54D-03 MaxDP=1.64D-01              OVMax= 1.58D-01

 Cycle   2  Pass 0  IDiag  1:
 E= -532.665588116993     Delta-E=       -0.128919712879 Rises=F Damp=T
 DIIS: error= 1.09D-02 at cycle   2 NSaved=   2.
 NSaved= 2 IEnMin= 2 EnMin= -532.665588116993     IErMin= 2 ErrMin= 1.09D-02
 ErrMax= 1.09D-02  0.00D+00 EMaxC= 1.00D-01 BMatC= 2.16D-02 BMatP= 3.21D-01
 IDIUse=3 WtCom= 8.91D-01 WtEn= 1.09D-01
 Coeff-Com:  0.556D-01 0.944D+00
 Coeff-En:   0.695D-01 0.931D+00
 Coeff:      0.572D-01 0.943D+00
 Gap=     0.237 Goal=   None    Shift=    0.000
 RMSDP=2.22D-03 MaxDP=3.27D-02 DE=-1.29D-01 OVMax= 1.09D-01

 Cycle   3  Pass 0  IDiag  1:
 E= -532.805317055727     Delta-E=       -0.139728938734 Rises=F Damp=F
 DIIS: error= 1.07D-02 at cycle   3 NSaved=   3.
 NSaved= 3 IEnMin= 3 EnMin= -532.805317055727     IErMin= 3 ErrMin= 1.07D-02
 ErrMax= 1.07D-02  0.00D+00 EMaxC= 1.00D-01 BMatC= 1.75D-02 BMatP= 2.16D-02
 IDIUse=3 WtCom= 8.93D-01 WtEn= 1.07D-01
 Coeff-Com: -0.131D-01 0.473D+00 0.540D+00
 Coeff-En:   0.000D+00 0.000D+00 0.100D+01
 Coeff:     -0.117D-01 0.422D+00 0.590D+00
 Gap=     0.242 Goal=   None    Shift=    0.000
 RMSDP=1.43D-03 MaxDP=3.08D-02 DE=-1.40D-01 OVMax= 4.67D-02

 Cycle   4  Pass 0  IDiag  1:
 E= -532.817065010734     Delta-E=       -0.011747955007 Rises=F Damp=F
 DIIS: error= 6.36D-03 at cycle   4 NSaved=   4.
 NSaved= 4 IEnMin= 4 EnMin= -532.817065010734     IErMin= 4 ErrMin= 6.36D-03
 ErrMax= 6.36D-03  0.00D+00 EMaxC= 1.00D-01 BMatC= 3.78D-03 BMatP= 1.75D-02
 IDIUse=3 WtCom= 9.36D-01 WtEn= 6.36D-02
 Coeff-Com: -0.433D-02 0.279D-01 0.321D+00 0.655D+00
 Coeff-En:   0.000D+00 0.000D+00 0.175D+00 0.825D+00
 Coeff:     -0.405D-02 0.261D-01 0.312D+00 0.666D+00
 Gap=     0.236 Goal=   None    Shift=    0.000
 RMSDP=5.14D-04 MaxDP=8.74D-03 DE=-1.17D-02 OVMax= 1.49D-02

 Cycle   5  Pass 0  IDiag  1:
 E= -532.819859179140     Delta-E=       -0.002794168407 Rises=F Damp=F
 DIIS: error= 7.94D-04 at cycle   5 NSaved=   5.
 NSaved= 5 IEnMin= 5 EnMin= -532.819859179140     IErMin= 5 ErrMin= 7.94D-04
 ErrMax= 7.94D-04  0.00D+00 EMaxC= 1.00D-01 BMatC= 1.76D-04 BMatP= 3.78D-03
 IDIUse=3 WtCom= 9.92D-01 WtEn= 7.94D-03
 Coeff-Com: -0.203D-03-0.109D-01 0.135D+00 0.343D+00 0.533D+00
 Coeff-En:   0.000D+00 0.000D+00 0.000D+00 0.000D+00 0.100D+01
 Coeff:     -0.202D-03-0.108D-01 0.134D+00 0.340D+00 0.537D+00
 Gap=     0.235 Goal=   None    Shift=    0.000
 RMSDP=1.08D-04 MaxDP=2.21D-03 DE=-2.79D-03 OVMax= 2.85D-03

 Cycle   6  Pass 0  IDiag  1:
 E= -532.820016071484     Delta-E=       -0.000156892344 Rises=F Damp=F
 DIIS: error= 2.50D-04 at cycle   6 NSaved=   6.
 NSaved= 6 IEnMin= 6 EnMin= -532.820016071484     IErMin= 6 ErrMin= 2.50D-04
 ErrMax= 2.50D-04  0.00D+00 EMaxC= 1.00D-01 BMatC= 4.47D-06 BMatP= 1.76D-04
 IDIUse=3 WtCom= 9.97D-01 WtEn= 2.50D-03
 Coeff-Com:  0.905D-03-0.470D-02 0.889D-02 0.179D-01 0.110D+00 0.867D+00
 Coeff-En:   0.000D+00 0.000D+00 0.000D+00 0.000D+00 0.000D+00 0.100D+01
 Coeff:      0.903D-03-0.469D-02 0.887D-02 0.178D-01 0.110D+00 0.867D+00
 Gap=     0.236 Goal=   None    Shift=    0.000
 RMSDP=3.14D-05 MaxDP=5.68D-04 DE=-1.57D-04 OVMax= 1.07D-03

 Cycle   7  Pass 0  IDiag  1:
 E= -532.820021241317     Delta-E=       -0.000005169832 Rises=F Damp=F
 DIIS: error= 1.27D-04 at cycle   7 NSaved=   7.
 NSaved= 7 IEnMin= 7 EnMin= -532.820021241317     IErMin= 7 ErrMin= 1.27D-04
 ErrMax= 1.27D-04  0.00D+00 EMaxC= 1.00D-01 BMatC= 1.10D-06 BMatP= 4.47D-06
 IDIUse=3 WtCom= 9.99D-01 WtEn= 1.27D-03
 Coeff-Com:  0.542D-03-0.819D-03-0.142D-01-0.409D-01-0.240D-01 0.398D+00
 Coeff-Com:  0.682D+00
 Coeff-En:   0.000D+00 0.000D+00 0.000D+00 0.000D+00 0.000D+00 0.000D+00
 Coeff-En:   0.100D+01
 Coeff:      0.542D-03-0.818D-03-0.142D-01-0.408D-01-0.239D-01 0.397D+00
 Coeff:      0.682D+00
 Gap=     0.236 Goal=   None    Shift=    0.000
 RMSDP=1.57D-05 MaxDP=2.80D-04 DE=-5.17D-06 OVMax= 3.50D-04

 Cycle   8  Pass 0  IDiag  1:
 E= -532.820022296680     Delta-E=       -0.000001055363 Rises=F Damp=F
 DIIS: error= 5.12D-05 at cycle   8 NSaved=   8.
 NSaved= 8 IEnMin= 8 EnMin= -532.820022296680     IErMin= 8 ErrMin= 5.12D-05
 ErrMax= 5.12D-05  0.00D+00 EMaxC= 1.00D-01 BMatC= 1.80D-07 BMatP= 1.10D-06
 IDIUse=1 WtCom= 1.00D+00 WtEn= 0.00D+00
 Coeff-Com:  0.169D-03 0.975D-04-0.788D-02-0.222D-01-0.259D-01 0.912D-01
 Coeff-Com:  0.342D+00 0.622D+00
 Coeff:      0.169D-03 0.975D-04-0.788D-02-0.222D-01-0.259D-01 0.912D-01
 Coeff:      0.342D+00 0.622D+00
 Gap=     0.236 Goal=   None    Shift=    0.000
 RMSDP=4.48D-06 MaxDP=1.29D-04 DE=-1.06D-06 OVMax= 2.02D-04

 Initial convergence to 1.0D-05 achieved.  Increase integral accuracy.
 Cycle   9  Pass 1  IDiag  1:
 E= -532.820258218129     Delta-E=       -0.000235921449 Rises=F Damp=F
 DIIS: error= 1.14D-04 at cycle   1 NSaved=   1.
 NSaved= 1 IEnMin= 1 EnMin= -532.820258218129     IErMin= 1 ErrMin= 1.14D-04
 ErrMax= 1.14D-04  0.00D+00 EMaxC= 1.00D-01 BMatC= 1.74D-06 BMatP= 1.74D-06
 IDIUse=3 WtCom= 9.99D-01 WtEn= 1.14D-03
 Coeff-Com:  0.100D+01
 Coeff-En:   0.100D+01
 Coeff:      0.100D+01
 Gap=     0.236 Goal=   None    Shift=    0.000
 RMSDP=4.48D-06 MaxDP=1.29D-04 DE=-2.36D-04 OVMax= 2.13D-04

 Cycle  10  Pass 1  IDiag  1:
 E= -532.820259832087     Delta-E=       -0.000001613958 Rises=F Damp=F
 DIIS: error= 6.03D-05 at cycle   2 NSaved=   2.
 NSaved= 2 IEnMin= 2 EnMin= -532.820259832087     IErMin= 2 ErrMin= 6.03D-05
 ErrMax= 6.03D-05  0.00D+00 EMaxC= 1.00D-01 BMatC= 3.98D-07 BMatP= 1.74D-06
 IDIUse=1 WtCom= 1.00D+00 WtEn= 0.00D+00
 Coeff-Com:  0.251D+00 0.749D+00
 Coeff:      0.251D+00 0.749D+00
 Gap=     0.236 Goal=   None    Shift=    0.000
 RMSDP=7.91D-06 MaxDP=1.24D-04 DE=-1.61D-06 OVMax= 1.70D-04

 Cycle  11  Pass 1  IDiag  1:
 E= -532.820260093570     Delta-E=       -0.000000261482 Rises=F Damp=F
 DIIS: error= 3.46D-05 at cycle   3 NSaved=   3.
 NSaved= 3 IEnMin= 3 EnMin= -532.820260093570     IErMin= 3 ErrMin= 3.46D-05
 ErrMax= 3.46D-05  0.00D+00 EMaxC= 1.00D-01 BMatC= 1.72D-07 BMatP= 3.98D-07
 IDIUse=1 WtCom= 1.00D+00 WtEn= 0.00D+00
 Coeff-Com: -0.200D-01 0.386D+00 0.634D+00
 Coeff:     -0.200D-01 0.386D+00 0.634D+00
 Gap=     0.236 Goal=   None    Shift=    0.000
 RMSDP=3.74D-06 MaxDP=9.74D-05 DE=-2.61D-07 OVMax= 1.17D-04

 Cycle  12  Pass 1  IDiag  1:
 E= -532.820260221672     Delta-E=       -0.000000128102 Rises=F Damp=F
 DIIS: error= 1.75D-05 at cycle   4 NSaved=   4.
 NSaved= 4 IEnMin= 4 EnMin= -532.820260221672     IErMin= 4 ErrMin= 1.75D-05
 ErrMax= 1.75D-05  0.00D+00 EMaxC= 1.00D-01 BMatC= 2.54D-08 BMatP= 1.72D-07
 IDIUse=1 WtCom= 1.00D+00 WtEn= 0.00D+00
 Coeff-Com: -0.356D-01 0.169D+00 0.375D+00 0.491D+00
 Coeff:     -0.356D-01 0.169D+00 0.375D+00 0.491D+00
 Gap=     0.236 Goal=   None    Shift=    0.000
 RMSDP=1.11D-06 MaxDP=3.60D-05 DE=-1.28D-07 OVMax= 3.68D-05

 Cycle  13  Pass 1  IDiag  1:
 E= -532.820260243085     Delta-E=       -0.000000021413 Rises=F Damp=F
 DIIS: error= 2.14D-06 at cycle   5 NSaved=   5.
 NSaved= 5 IEnMin= 5 EnMin= -532.820260243085     IErMin= 5 ErrMin= 2.14D-06
 ErrMax= 2.14D-06  0.00D+00 EMaxC= 1.00D-01 BMatC= 3.67D-10 BMatP= 2.54D-08
 IDIUse=1 WtCom= 1.00D+00 WtEn= 0.00D+00
 Coeff-Com: -0.524D-02 0.303D-02 0.210D-01 0.953D-01 0.886D+00
 Coeff:     -0.524D-02 0.303D-02 0.210D-01 0.953D-01 0.886D+00
 Gap=     0.236 Goal=   None    Shift=    0.000
 RMSDP=3.13D-07 MaxDP=6.45D-06 DE=-2.14D-08 OVMax= 1.18D-05

 Cycle  14  Pass 1  IDiag  1:
 E= -532.820260243524     Delta-E=       -0.000000000440 Rises=F Damp=F
 DIIS: error= 1.08D-06 at cycle   6 NSaved=   6.
 NSaved= 6 IEnMin= 6 EnMin= -532.820260243524     IErMin= 6 ErrMin= 1.08D-06
 ErrMax= 1.08D-06  0.00D+00 EMaxC= 1.00D-01 BMatC= 1.79D-10 BMatP= 3.67D-10
 IDIUse=1 WtCom= 1.00D+00 WtEn= 0.00D+00
 Coeff-Com:  0.254D-02-0.224D-01-0.428D-01-0.213D-01 0.478D+00 0.606D+00
 Coeff:      0.254D-02-0.224D-01-0.428D-01-0.213D-01 0.478D+00 0.606D+00
 Gap=     0.236 Goal=   None    Shift=    0.000
 RMSDP=1.20D-07 MaxDP=2.77D-06 DE=-4.40D-10 OVMax= 2.89D-06

 Cycle  15  Pass 1  IDiag  1:
 E= -532.820260243679     Delta-E=       -0.000000000155 Rises=F Damp=F
 DIIS: error= 2.58D-07 at cycle   7 NSaved=   7.
 NSaved= 7 IEnMin= 7 EnMin= -532.820260243679     IErMin= 7 ErrMin= 2.58D-07
 ErrMax= 2.58D-07  0.00D+00 EMaxC= 1.00D-01 BMatC= 4.39D-12 BMatP= 1.79D-10
 IDIUse=1 WtCom= 1.00D+00 WtEn= 0.00D+00
 Coeff-Com:  0.670D-03-0.296D-02-0.660D-02-0.130D-01-0.166D-01 0.701D-01
 Coeff-Com:  0.968D+00
 Coeff:      0.670D-03-0.296D-02-0.660D-02-0.130D-01-0.166D-01 0.701D-01
 Coeff:      0.968D+00
 Gap=     0.236 Goal=   None    Shift=    0.000
 RMSDP=5.55D-08 MaxDP=8.31D-07 DE=-1.55D-10 OVMax= 1.51D-06

 Cycle  16  Pass 1  IDiag  1:
 E= -532.820260243694     Delta-E=       -0.000000000015 Rises=F Damp=F
 DIIS: error= 1.88D-07 at cycle   8 NSaved=   8.
 NSaved= 8 IEnMin= 8 EnMin= -532.820260243694     IErMin= 8 ErrMin= 1.88D-07
 ErrMax= 1.88D-07  0.00D+00 EMaxC= 1.00D-01 BMatC= 3.60D-12 BMatP= 4.39D-12
 IDIUse=1 WtCom= 1.00D+00 WtEn= 0.00D+00
 Coeff-Com:  0.184D-03 0.509D-03 0.411D-03-0.618D-02-0.620D-01-0.240D-01
 Coeff-Com:  0.598D+00 0.493D+00
 Coeff:      0.184D-03 0.509D-03 0.411D-03-0.618D-02-0.620D-01-0.240D-01
 Coeff:      0.598D+00 0.493D+00
 Gap=     0.236 Goal=   None    Shift=    0.000
 RMSDP=1.78D-08 MaxDP=4.91D-07 DE=-1.48D-11 OVMax= 6.76D-07

 Cycle  17  Pass 1  IDiag  1:
 E= -532.820260243702     Delta-E=       -0.000000000008 Rises=F Damp=F
 DIIS: error= 3.62D-08 at cycle   9 NSaved=   9.
 NSaved= 9 IEnMin= 9 EnMin= -532.820260243702     IErMin= 9 ErrMin= 3.62D-08
 ErrMax= 3.62D-08  0.00D+00 EMaxC= 1.00D-01 BMatC= 1.32D-13 BMatP= 3.60D-12
 IDIUse=1 WtCom= 1.00D+00 WtEn= 0.00D+00
 Coeff-Com: -0.807D-04 0.728D-03 0.148D-02 0.695D-03-0.147D-01-0.202D-01
 Coeff-Com: -0.183D-01 0.127D+00 0.923D+00
 Coeff:     -0.807D-04 0.728D-03 0.148D-02 0.695D-03-0.147D-01-0.202D-01
 Coeff:     -0.183D-01 0.127D+00 0.923D+00
 Gap=     0.236 Goal=   None    Shift=    0.000
 RMSDP=6.93D-09 MaxDP=1.32D-07 DE=-7.96D-12 OVMax= 2.97D-07

 SCF Done:  E(RM062X) =  -532.820260244     A.U. after   17 cycles
            NFock= 17  Conv=0.69D-08     -V/T= 2.0061
 KE= 5.295659999470D+02 PE=-2.400364281553D+03 EE= 7.539482903423D+02
 Leave Link  502 at Thu Mar 12 19:34:46 2020, MaxMem=    33554432 cpu:        55.3
 (Enter /usr/local/gaussian09d01/g09/l601.exe)
 Copying SCF densities to generalized density rwf, IOpCl= 0 IROHF=0.

 **********************************************************************

            Population analysis using the SCF density.

 **********************************************************************

 Orbital symmetries:
       Occupied  (A) (A) (A) (A) (A) (A) (A) (A) (A) (A) (A) (A)
                 (A) (A) (A) (A) (A) (A) (A) (A) (A) (A) (A) (A)
                 (A) (A) (A) (A) (A) (A) (A) (A) (A) (A) (A) (A)
                 (A) (A) (A) (A)
       Virtual   (A) (A) (A) (A) (A) (A) (A) (A) (A) (A) (A) (A)
                 (A) (A) (A) (A) (A) (A) (A) (A) (A) (A) (A) (A)
                 (A) (A) (A) (A) (A) (A) (A) (A) (A) (A) (A) (A)
                 (A) (A) (A) (A) (A) (A) (A) (A) (A) (A) (A) (A)
                 (A) (A) (A) (A) (A) (A) (A) (A) (A) (A) (A) (A)
                 (A) (A) (A) (A) (A) (A) (A) (A) (A) (A) (A) (A)
                 (A) (A) (A) (A)
 The electronic state is 1-A.
 Alpha  occ. eigenvalues --  -19.89299 -19.83760 -19.80191 -14.97725 -14.92550
 Alpha  occ. eigenvalues --  -10.88108 -10.85839 -10.77491 -10.74897 -10.62967
 Alpha  occ. eigenvalues --   -1.39986  -1.38344  -1.30917  -1.23331  -1.17899
 Alpha  occ. eigenvalues --   -1.05708  -0.96169  -0.89985  -0.88129  -0.84789
 Alpha  occ. eigenvalues --   -0.82362  -0.78152  -0.74390  -0.73481  -0.72869
 Alpha  occ. eigenvalues --   -0.71597  -0.69819  -0.68414  -0.65692  -0.63828
 Alpha  occ. eigenvalues --   -0.63125  -0.60397  -0.58802  -0.56973  -0.56762
 Alpha  occ. eigenvalues --   -0.55812  -0.54838  -0.53757  -0.51234  -0.48868
 Alpha virt. eigenvalues --   -0.25276  -0.14870  -0.11905  -0.03251  -0.00751
 Alpha virt. eigenvalues --   -0.00245   0.01348   0.02164   0.04301   0.05449
 Alpha virt. eigenvalues --    0.07095   0.07721   0.08259   0.10107   0.11214
 Alpha virt. eigenvalues --    0.11380   0.12593   0.13433   0.16099   0.18766
 Alpha virt. eigenvalues --    0.20323   0.24913   0.28606   0.39321   0.42148
 Alpha virt. eigenvalues --    0.43992   0.46529   0.47110   0.48341   0.48627
 Alpha virt. eigenvalues --    0.50162   0.52345   0.52428   0.54766   0.58725
 Alpha virt. eigenvalues --    0.58974   0.59380   0.61093   0.63966   0.64892
 Alpha virt. eigenvalues --    0.67972   0.70358   0.71667   0.75581   0.77619
 Alpha virt. eigenvalues --    0.78590   0.79650   0.81547   0.83667   0.84549
 Alpha virt. eigenvalues --    0.86767   0.87440   0.88210   0.88421   0.89268
 Alpha virt. eigenvalues --    0.92258   0.92694   0.94757   0.95467   0.97092
 Alpha virt. eigenvalues --    1.02761   1.04210   1.09129   1.09557   1.11598
 Alpha virt. eigenvalues --    1.13829   1.19551   1.24848   1.30502   1.33201
 Alpha virt. eigenvalues --    1.41911   1.52231   1.64111   1.74527   1.76670
 Alpha virt. eigenvalues --    1.85713
          Condensed to atoms (all electrons):
               1          2          3          4          5          6
     1  C    5.188998   0.375400   0.371627   0.000000   0.370252   0.371055
     2  H    0.375400   0.470099  -0.018018   0.000000  -0.019888  -0.020279
     3  H    0.371627  -0.018018   0.521536   0.000000  -0.029568  -0.030064
     4  H    0.000000   0.000000   0.000000   0.374708   0.000000   0.000000
     5  H    0.370252  -0.019888  -0.029568   0.000000   0.538286  -0.032161
     6  H    0.371055  -0.020279  -0.030064   0.000000  -0.032161   0.544338
     7  C    0.000000   0.000000  -0.000001  -0.010349   0.000000   0.000000
     8  C   -0.000005   0.000001   0.000084   0.000427  -0.000011  -0.000007
     9  C    0.000256   0.000038   0.001496   0.000012  -0.000152  -0.000130
    10  N    0.000000   0.000000  -0.000001   0.000009   0.000000   0.000000
    11  O   -0.001324   0.000015   0.003324   0.000184   0.000043   0.000016
    12  O   -0.005211   0.000175  -0.001630   0.000000  -0.000759  -0.000629
    13  C    0.000000   0.000000   0.000000  -0.000119   0.000000   0.000000
    14  H    0.000000   0.000000   0.000000   0.000301   0.000000   0.000000
    15  H    0.000000   0.000000   0.000000   0.006070   0.000000   0.000000
    16  H    0.000001   0.000000  -0.000002  -0.000004   0.000000   0.000000
    17  H    0.000000   0.000000   0.000000  -0.000029   0.000000   0.000000
    18  H   -0.000001   0.000000   0.000000   0.000000   0.000000   0.000000
    19  H    0.026790  -0.000931   0.002072   0.000000   0.005151   0.004677
    20  N    0.000000   0.000000   0.000000   0.003490   0.000000   0.000000
    21  O    0.000000   0.000000   0.000000   0.170037   0.000000   0.000000
    22  H    0.000000   0.000000   0.000000   0.000000   0.000000   0.000000
    23  H    0.000000   0.000000   0.000000  -0.000049   0.000000   0.000000
               7          8          9         10         11         12
     1  C    0.000000  -0.000005   0.000256   0.000000  -0.001324  -0.005211
     2  H    0.000000   0.000001   0.000038   0.000000   0.000015   0.000175
     3  H   -0.000001   0.000084   0.001496  -0.000001   0.003324  -0.001630
     4  H   -0.010349   0.000427   0.000012   0.000009   0.000184   0.000000
     5  H    0.000000  -0.000011  -0.000152   0.000000   0.000043  -0.000759
     6  H    0.000000  -0.000007  -0.000130   0.000000   0.000016  -0.000629
     7  C    5.414182   0.215523  -0.048076  -0.071472   0.008089   0.005372
     8  C    0.215523   5.572358   0.152390   0.193329  -0.124298  -0.148257
     9  C   -0.048076   0.152390   4.754914  -0.049550   0.496568   0.193937
    10  N   -0.071472   0.193329  -0.049550   7.093830   0.002191   0.001794
    11  O    0.008089  -0.124298   0.496568   0.002191   8.123900  -0.108693
    12  O    0.005372  -0.148257   0.193937   0.001794  -0.108693   8.419753
    13  C    0.257635  -0.017819  -0.007904  -0.006985   0.010572  -0.000547
    14  H    0.376230  -0.027818   0.005650  -0.001500   0.000411  -0.000027
    15  H    0.368058  -0.027801  -0.002220   0.003933   0.004717   0.000130
    16  H   -0.043612   0.385365  -0.027343  -0.036126   0.001104   0.000939
    17  H   -0.010003  -0.011287  -0.000564   0.094096   0.000204  -0.000074
    18  H    0.004827  -0.034227  -0.007510   0.320752   0.000223   0.013172
    19  H   -0.000159   0.005465  -0.018689  -0.000118  -0.000604   0.236996
    20  N   -0.093323   0.005627   0.000491  -0.075798  -0.003367   0.000059
    21  O   -0.056209   0.002561  -0.000607  -0.000156  -0.001622  -0.000001
    22  H   -0.000956  -0.029173   0.004156   0.322176  -0.000080  -0.000004
    23  H    0.003997  -0.000242  -0.000100   0.001510   0.000027   0.000003
              13         14         15         16         17         18
     1  C    0.000000   0.000000   0.000000   0.000001   0.000000  -0.000001
     2  H    0.000000   0.000000   0.000000   0.000000   0.000000   0.000000
     3  H    0.000000   0.000000   0.000000  -0.000002   0.000000   0.000000
     4  H   -0.000119   0.000301   0.006070  -0.000004  -0.000029   0.000000
     5  H    0.000000   0.000000   0.000000   0.000000   0.000000   0.000000
     6  H    0.000000   0.000000   0.000000   0.000000   0.000000   0.000000
     7  C    0.257635   0.376230   0.368058  -0.043612  -0.010003   0.004827
     8  C   -0.017819  -0.027818  -0.027801   0.385365  -0.011287  -0.034227
     9  C   -0.007904   0.005650  -0.002220  -0.027343  -0.000564  -0.007510
    10  N   -0.006985  -0.001500   0.003933  -0.036126   0.094096   0.320752
    11  O    0.010572   0.000411   0.004717   0.001104   0.000204   0.000223
    12  O   -0.000547  -0.000027   0.000130   0.000939  -0.000074   0.013172
    13  C    4.624533  -0.035120  -0.033978   0.004073  -0.016148   0.000175
    14  H   -0.035120   0.447225  -0.017086  -0.003270  -0.000275  -0.000053
    15  H   -0.033978  -0.017086   0.485773  -0.000686   0.000391  -0.000108
    16  H    0.004073  -0.003270  -0.000686   0.465407   0.000985   0.000981
    17  H   -0.016148  -0.000275   0.000391   0.000985   0.255849  -0.000509
    18  H    0.000175  -0.000053  -0.000108   0.000981  -0.000509   0.338819
    19  H   -0.000009   0.000002  -0.000002  -0.000252  -0.000020  -0.000263
    20  N    0.325341  -0.001487   0.004424  -0.000314   0.234263   0.000322
    21  O    0.308891   0.001043  -0.003359  -0.000068   0.001356   0.000002
    22  H   -0.000213   0.001630  -0.000075  -0.003844  -0.001541  -0.020963
    23  H   -0.020254  -0.000135  -0.000070   0.000011  -0.002604  -0.000013
              19         20         21         22         23
     1  C    0.026790   0.000000   0.000000   0.000000   0.000000
     2  H   -0.000931   0.000000   0.000000   0.000000   0.000000
     3  H    0.002072   0.000000   0.000000   0.000000   0.000000
     4  H    0.000000   0.003490   0.170037   0.000000  -0.000049
     5  H    0.005151   0.000000   0.000000   0.000000   0.000000
     6  H    0.004677   0.000000   0.000000   0.000000   0.000000
     7  C   -0.000159  -0.093323  -0.056209  -0.000956   0.003997
     8  C    0.005465   0.005627   0.002561  -0.029173  -0.000242
     9  C   -0.018689   0.000491  -0.000607   0.004156  -0.000100
    10  N   -0.000118  -0.075798  -0.000156   0.322176   0.001510
    11  O   -0.000604  -0.003367  -0.001622  -0.000080   0.000027
    12  O    0.236996   0.000059  -0.000001  -0.000004   0.000003
    13  C   -0.000009   0.325341   0.308891  -0.000213  -0.020254
    14  H    0.000002  -0.001487   0.001043   0.001630  -0.000135
    15  H   -0.000002   0.004424  -0.003359  -0.000075  -0.000070
    16  H   -0.000252  -0.000314  -0.000068  -0.003844   0.000011
    17  H   -0.000020   0.234263   0.001356  -0.001541  -0.002604
    18  H   -0.000263   0.000322   0.000002  -0.020963  -0.000013
    19  H    0.275838   0.000010   0.000000   0.000017  -0.000001
    20  N    0.000010   7.107503  -0.115377   0.000942   0.306637
    21  O    0.000000  -0.115377   8.193453   0.000002  -0.000674
    22  H    0.000017   0.000942   0.000002   0.371110  -0.000022
    23  H   -0.000001   0.306637  -0.000674  -0.000022   0.298101
 Mulliken charges:
               1
     1  C   -0.697839
     2  H    0.213389
     3  H    0.179146
     4  H    0.455312
     5  H    0.168807
     6  H    0.163184
     7  C   -0.319755
     8  C   -0.112186
     9  C    0.552938
    10  N   -0.791914
    11  O   -0.411602
    12  O   -0.606497
    13  C    0.607879
    14  H    0.254278
    15  H    0.211889
    16  H    0.256654
    17  H    0.455910
    18  H    0.384372
    19  H    0.464030
    20  N   -0.699443
    21  O   -0.499271
    22  H    0.356839
    23  H    0.413879
 Sum of Mulliken charges =   1.00000
 Mulliken charges with hydrogens summed into heavy atoms:
               1
     1  C    0.026687
     7  C    0.146412
     8  C    0.144468
     9  C    0.552938
    10  N   -0.050702
    11  O   -0.411602
    12  O   -0.142467
    13  C    0.607879
    20  N    0.170346
    21  O   -0.043959
 Electronic spatial extent (au):  <R**2>=           1999.7075
 Charge=              1.0000 electrons
 Dipole moment (field-independent basis, Debye):
    X=              4.8565    Y=              1.2106    Z=             -1.1218  Tot=              5.1293
 Quadrupole moment (field-independent basis, Debye-Ang):
   XX=            -33.7058   YY=            -45.8460   ZZ=            -46.0618
   XY=             -2.7280   XZ=             -5.6456   YZ=              4.0703
 Traceless Quadrupole moment (field-independent basis, Debye-Ang):
   XX=              8.1654   YY=             -3.9748   ZZ=             -4.1906
   XY=             -2.7280   XZ=             -5.6456   YZ=              4.0703
 Octapole moment (field-independent basis, Debye-Ang**2):
  XXX=            -22.1596  YYY=              8.1326  ZZZ=              8.5922  XYY=             29.6225
  XXY=            -20.7545  XXZ=             -5.4480  XZZ=             27.9596  YZZ=            -12.1495
  YYZ=            -14.5627  XYZ=             13.3819
 Hexadecapole moment (field-independent basis, Debye-Ang**3):
 XXXX=          -1445.8860 YYYY=           -409.9549 ZZZZ=           -195.5965 XXXY=             19.4772
 XXXZ=            -41.8298 YYYX=            -34.8325 YYYZ=             62.3100 ZZZX=             20.0877
 ZZZY=              5.4817 XXYY=           -319.3484 XXZZ=           -279.9277 YYZZ=            -94.7480
 XXYZ=             25.5625 YYXZ=            -46.2633 ZZXY=            -44.1354
 N-N= 5.840297310195D+02 E-N=-2.400364279227D+03  KE= 5.295659999470D+02
 No NMR shielding tensors so no spin-rotation constants.
 Leave Link  601 at Thu Mar 12 19:34:46 2020, MaxMem=    33554432 cpu:         0.1
 (Enter /usr/local/gaussian09d01/g09/l9999.exe)
 1\1\GINC-KARURA\SP\RM062X\6-31G\C5H13N2O3(1+)\RTAKE\12-Mar-2020\0\\#p 
 M062X/6-31G\\chk calc\\1,1\C,0,3.824482709,-1.14219544,1.17225369\H,0,
 4.799113079,-1.62961423,1.173808707\H,0,3.053614027,-1.916312598,1.160
 804944\H,0,-2.662552919,-3.308979593,-0.677778845\H,0,3.75960642,-0.53
 291794,2.07824618\H,0,3.765323683,-0.52154146,0.273951194\C,0,-2.40154
 2122,-0.705499021,0.492562549\C,0,-1.33365594,0.193207044,1.141270536\
 C,0,0.021967089,-0.47033751,0.950186539\N,0,-1.303304814,1.529148773,0
 .515945207\O,0,0.155929117,-1.611462803,0.51692019\O,0,1.024922388,0.3
 53392554,1.298656\C,0,-2.121889445,-0.918337302,-0.967112723\H,0,-3.39
 229932,-0.247402335,0.596496855\H,0,-2.419176945,-1.669900059,1.004436
 439\H,0,-1.526304416,0.239474424,2.221387894\H,0,-1.503902114,0.960750
 702,-1.170400229\H,0,-0.410560182,1.997532273,0.666150752\H,0,1.924402
 159,-0.039925506,1.230818645\N,0,-1.700457396,0.069239192,-1.694919761
 \O,0,-2.336854815,-2.071648312,-1.575178364\H,0,-2.071900591,2.1285565
 43,0.807834339\H,0,-1.514408501,-0.054510917,-2.685235696\\Version=ES6
 4L-G09RevD.01\State=1-A\HF=-532.8202602\RMSD=6.928e-09\Dipole=-2.00170
 28,0.2067064,-0.151155\Quadrupole=6.2997701,-0.4462413,-5.8535288,4.10
 07759,2.1552879,-0.01442\PG=C01 [X(C5H13N2O3)]\\@


 IT IS DOUBTED WHETHER A MAN EVER BRINGS HIS FACULTIES TO BEAR WITH THEIR FULL FORCE
 ON A SUBJECT UNTIL HE WRITES UPON IT.

                          -- CICERO
 Job cpu time:       0 days  0 hours  0 minutes 56.7 seconds.
 File lengths (MBytes):  RWF=      7 Int=      0 D2E=      0 Chk=      2 Scr=      1
 Normal termination of Gaussian 09 at Thu Mar 12 19:34:46 2020.
