 Entering Gaussian System, Link 0=g09
 Input=./h4_o21_07.gjf
 Output=./h4_o21_07.log
 Initial command:
 /usr/local/gaussian09d01/g09/l1.exe "/scr/Gau-22261.inp" -scrdir="/scr/"
 Entering Link 1 = /usr/local/gaussian09d01/g09/l1.exe PID=     22262.
  
 Copyright (c) 1988,1990,1992,1993,1995,1998,2003,2009,2013,
            Gaussian, Inc.  All Rights Reserved.
  
 This is part of the Gaussian(R) 09 program.  It is based on
 the Gaussian(R) 03 system (copyright 2003, Gaussian, Inc.),
 the Gaussian(R) 98 system (copyright 1998, Gaussian, Inc.),
 the Gaussian(R) 94 system (copyright 1995, Gaussian, Inc.),
 the Gaussian 92(TM) system (copyright 1992, Gaussian, Inc.),
 the Gaussian 90(TM) system (copyright 1990, Gaussian, Inc.),
 the Gaussian 88(TM) system (copyright 1988, Gaussian, Inc.),
 the Gaussian 86(TM) system (copyright 1986, Carnegie Mellon
 University), and the Gaussian 82(TM) system (copyright 1983,
 Carnegie Mellon University). Gaussian is a federally registered
 trademark of Gaussian, Inc.
  
 This software contains proprietary and confidential information,
 including trade secrets, belonging to Gaussian, Inc.
  
 This software is provided under written license and may be
 used, copied, transmitted, or stored only in accord with that
 written license.
  
 The following legend is applicable only to US Government
 contracts under FAR:
  
                    RESTRICTED RIGHTS LEGEND
  
 Use, reproduction and disclosure by the US Government is
 subject to restrictions as set forth in subparagraphs (a)
 and (c) of the Commercial Computer Software - Restricted
 Rights clause in FAR 52.227-19.
  
 Gaussian, Inc.
 340 Quinnipiac St., Bldg. 40, Wallingford CT 06492
  
  
 ---------------------------------------------------------------
 Warning -- This program may not be used in any manner that
 competes with the business of Gaussian, Inc. or will provide
 assistance to any competitor of Gaussian, Inc.  The licensee
 of this program is prohibited from giving any competitor of
 Gaussian, Inc. access to this program.  By using this program,
 the user acknowledges that Gaussian, Inc. is engaged in the
 business of creating and licensing software in the field of
 computational chemistry and represents and warrants to the
 licensee that it is not a competitor of Gaussian, Inc. and that
 it will not use this program in any manner prohibited above.
 ---------------------------------------------------------------
  

 Cite this work as:
 Gaussian 09, Revision D.01,
 M. J. Frisch, G. W. Trucks, H. B. Schlegel, G. E. Scuseria, 
 M. A. Robb, J. R. Cheeseman, G. Scalmani, V. Barone, B. Mennucci, 
 G. A. Petersson, H. Nakatsuji, M. Caricato, X. Li, H. P. Hratchian, 
 A. F. Izmaylov, J. Bloino, G. Zheng, J. L. Sonnenberg, M. Hada, 
 M. Ehara, K. Toyota, R. Fukuda, J. Hasegawa, M. Ishida, T. Nakajima, 
 Y. Honda, O. Kitao, H. Nakai, T. Vreven, J. A. Montgomery, Jr., 
 J. E. Peralta, F. Ogliaro, M. Bearpark, J. J. Heyd, E. Brothers, 
 K. N. Kudin, V. N. Staroverov, T. Keith, R. Kobayashi, J. Normand, 
 K. Raghavachari, A. Rendell, J. C. Burant, S. S. Iyengar, J. Tomasi, 
 M. Cossi, N. Rega, J. M. Millam, M. Klene, J. E. Knox, J. B. Cross, 
 V. Bakken, C. Adamo, J. Jaramillo, R. Gomperts, R. E. Stratmann, 
 O. Yazyev, A. J. Austin, R. Cammi, C. Pomelli, J. W. Ochterski, 
 R. L. Martin, K. Morokuma, V. G. Zakrzewski, G. A. Voth, 
 P. Salvador, J. J. Dannenberg, S. Dapprich, A. D. Daniels, 
 O. Farkas, J. B. Foresman, J. V. Ortiz, J. Cioslowski, 
 and D. J. Fox, Gaussian, Inc., Wallingford CT, 2013.
 
 ******************************************
 Gaussian 09:  ES64L-G09RevD.01 24-Apr-2013
                12-Mar-2020 
 ******************************************
 --------------
 #p M062X/6-31G
 --------------
 1/38=1/1;
 2/12=2,17=6,18=5,40=1/2;
 3/5=1,6=6,11=2,16=1,25=1,30=1,74=-55/1,2,3;
 4//1;
 5/5=2,38=5/2;
 6/7=2,8=2,9=2,10=2,28=1/1;
 99/5=1,9=1/99;
 Leave Link    1 at Thu Mar 12 19:25:17 2020, MaxMem=           0 cpu:         0.0
 (Enter /usr/local/gaussian09d01/g09/l101.exe)
 --------
 chk calc
 --------
 Symbolic Z-matrix:
 Charge =  1 Multiplicity = 1
 C                     3.82448  -1.1422    1.17225 
 H                     4.79911  -1.62961   1.17381 
 H                     3.05361  -1.91631   1.1608 
 H                    -2.47935  -2.61298  -1.18257 
 H                     3.75961  -0.53292   2.07825 
 H                     3.76532  -0.52154   0.27395 
 C                    -2.40154  -0.7055    0.49256 
 C                    -1.33366   0.19321   1.14127 
 C                     0.02197  -0.47034   0.95019 
 N                    -1.3033    1.52915   0.51595 
 O                     0.15593  -1.61146   0.51692 
 O                     1.02492   0.35339   1.29866 
 C                    -2.12189  -0.91834  -0.96711 
 H                    -3.3923   -0.2474    0.5965 
 H                    -2.41918  -1.6699    1.00444 
 H                    -1.5263    0.23947   2.22139 
 H                    -1.5039    0.96075  -1.1704 
 H                    -0.41056   1.99753   0.66615 
 H                     1.9244   -0.03993   1.23082 
 N                    -1.70046   0.06924  -1.69492 
 O                    -2.33685  -2.07165  -1.57518 
 H                    -2.0719    2.12856   0.80783 
 H                    -1.51441  -0.05451  -2.68524 
 
 NAtoms=     23 NQM=       23 NQMF=       0 NMMI=      0 NMMIF=      0
                NMic=       0 NMicF=      0.
                    Isotopes and Nuclear Properties:
 (Nuclear quadrupole moments (NQMom) in fm**2, nuclear magnetic moments (NMagM)
  in nuclear magnetons)

  Atom         1           2           3           4           5           6           7           8           9          10
 IAtWgt=          12           1           1           1           1           1          12          12          12          14
 AtmWgt=  12.0000000   1.0078250   1.0078250   1.0078250   1.0078250   1.0078250  12.0000000  12.0000000  12.0000000  14.0030740
 NucSpn=           0           1           1           1           1           1           0           0           0           2
 AtZEff=   0.0000000   0.0000000   0.0000000   0.0000000   0.0000000   0.0000000   0.0000000   0.0000000   0.0000000   0.0000000
 NQMom=    0.0000000   0.0000000   0.0000000   0.0000000   0.0000000   0.0000000   0.0000000   0.0000000   0.0000000   2.0440000
 NMagM=    0.0000000   2.7928460   2.7928460   2.7928460   2.7928460   2.7928460   0.0000000   0.0000000   0.0000000   0.4037610
 AtZNuc=   6.0000000   1.0000000   1.0000000   1.0000000   1.0000000   1.0000000   6.0000000   6.0000000   6.0000000   7.0000000

  Atom        11          12          13          14          15          16          17          18          19          20
 IAtWgt=          16          16          12           1           1           1           1           1           1          14
 AtmWgt=  15.9949146  15.9949146  12.0000000   1.0078250   1.0078250   1.0078250   1.0078250   1.0078250   1.0078250  14.0030740
 NucSpn=           0           0           0           1           1           1           1           1           1           2
 AtZEff=   0.0000000   0.0000000   0.0000000   0.0000000   0.0000000   0.0000000   0.0000000   0.0000000   0.0000000   0.0000000
 NQMom=    0.0000000   0.0000000   0.0000000   0.0000000   0.0000000   0.0000000   0.0000000   0.0000000   0.0000000   2.0440000
 NMagM=    0.0000000   0.0000000   0.0000000   2.7928460   2.7928460   2.7928460   2.7928460   2.7928460   2.7928460   0.4037610
 AtZNuc=   8.0000000   8.0000000   6.0000000   1.0000000   1.0000000   1.0000000   1.0000000   1.0000000   1.0000000   7.0000000

  Atom        21          22          23
 IAtWgt=          16           1           1
 AtmWgt=  15.9949146   1.0078250   1.0078250
 NucSpn=           0           1           1
 AtZEff=   0.0000000   0.0000000   0.0000000
 NQMom=    0.0000000   0.0000000   0.0000000
 NMagM=    0.0000000   2.7928460   2.7928460
 AtZNuc=   8.0000000   1.0000000   1.0000000
 Leave Link  101 at Thu Mar 12 19:25:17 2020, MaxMem=    33554432 cpu:         0.0
 (Enter /usr/local/gaussian09d01/g09/l202.exe)
                          Input orientation:                          
 ---------------------------------------------------------------------
 Center     Atomic      Atomic             Coordinates (Angstroms)
 Number     Number       Type             X           Y           Z
 ---------------------------------------------------------------------
      1          6           0        3.824483   -1.142195    1.172254
      2          1           0        4.799113   -1.629614    1.173809
      3          1           0        3.053614   -1.916313    1.160805
      4          1           0       -2.479348   -2.612981   -1.182566
      5          1           0        3.759606   -0.532918    2.078246
      6          1           0        3.765324   -0.521541    0.273951
      7          6           0       -2.401542   -0.705499    0.492563
      8          6           0       -1.333656    0.193207    1.141271
      9          6           0        0.021967   -0.470338    0.950187
     10          7           0       -1.303305    1.529149    0.515945
     11          8           0        0.155929   -1.611463    0.516920
     12          8           0        1.024922    0.353393    1.298656
     13          6           0       -2.121889   -0.918337   -0.967113
     14          1           0       -3.392299   -0.247402    0.596497
     15          1           0       -2.419177   -1.669900    1.004436
     16          1           0       -1.526304    0.239474    2.221388
     17          1           0       -1.503902    0.960751   -1.170400
     18          1           0       -0.410560    1.997532    0.666151
     19          1           0        1.924402   -0.039926    1.230819
     20          7           0       -1.700457    0.069239   -1.694920
     21          8           0       -2.336855   -2.071648   -1.575178
     22          1           0       -2.071901    2.128557    0.807834
     23          1           0       -1.514409   -0.054511   -2.685236
 ---------------------------------------------------------------------
                    Distance matrix (angstroms):
                    1          2          3          4          5
     1  C    0.000000
     2  H    1.089717   0.000000
     3  H    1.092532   1.768935   0.000000
     4  H    6.888154   7.713333   6.049000   0.000000
     5  H    1.093732   1.761058   1.803858   7.340579   0.000000
     6  H    1.093462   1.762467   1.799563   6.744737   1.804340
     7  C    6.278222   7.291606   5.627730   2.539802   6.364270
     8  C    5.328288   6.398015   4.868120   3.819361   5.229388
     9  C    3.867794   4.920879   3.365425   3.923790   3.904662
    10  N    5.819023   6.902903   5.591940   4.628742   5.685594
    11  O    3.756056   4.689455   2.983974   3.291804   4.072774
    12  O    3.176523   4.265257   3.047319   5.218787   2.978557
    13  C    6.323476   7.279405   5.684173   1.745283   6.634362
    14  H    7.294799   8.327247   6.682328   3.097500   7.309368
    15  H    6.268167   7.220389   5.480567   2.382436   6.373630
    16  H    5.624999   6.678459   5.171838   4.542213   5.343962
    17  H    6.188869   7.206477   5.872220   3.704484   6.363118
    18  H    5.296189   6.368250   5.250083   5.380935   5.078138
    19  H    2.197438   3.285472   2.191084   5.642522   2.080661
    20  N    6.341389   7.304801   5.890567   2.839627   6.664208
    21  O    6.809871   7.659919   6.047056   0.683732   7.272004
    22  H    6.752626   7.840192   6.538842   5.158477   6.534820
    23  H    6.675855   7.565298   6.255011   3.120079   7.122841
                    6          7          8          9         10
     6  H    0.000000
     7  C    6.173481   0.000000
     8  C    5.221370   1.539115   0.000000
     9  C    3.804292   2.477522   1.521354   0.000000
    10  N    5.473106   2.490045   1.475362   2.437797   0.000000
    11  O    3.778186   2.713305   2.421882   1.227938   3.463063
    12  O    3.053740   3.675826   2.369245   1.343831   2.723175
    13  C    6.029674   1.501385   2.510403   2.910818   2.976530
    14  H    7.170129   1.096474   2.174610   3.439769   2.743450
    15  H    6.332486   1.091969   2.160613   2.720492   3.423114
    16  H    5.689726   2.155888   1.098138   2.125307   2.149773
    17  H    5.661103   2.519443   2.441706   2.978788   1.790831
    18  H    4.892602   3.361625   2.081690   2.521535   1.019283
    19  H    2.129916   4.438671   3.267616   1.970601   3.659389
    20  N    5.839541   2.424215   2.862497   3.202261   2.678990
    21  O    6.561912   2.479133   3.676285   3.808636   4.290310
    22  H    6.432825   2.870528   2.098038   3.340478   1.017462
    23  H    6.070459   3.362914   3.838774   3.968584   3.577723
                   11         12         13         14         15
    11  O    0.000000
    12  O    2.286245   0.000000
    13  C    2.805572   4.080861   0.000000
    14  H    3.802225   4.512852   2.123434   0.000000
    15  H    2.621499   4.005259   2.130782   1.771124   0.000000
    16  H    3.026729   2.715358   3.444094   2.521757   2.433907
    17  H    3.495479   3.586095   1.988519   2.854401   3.533832
    18  H    3.656231   2.272415   3.754796   3.733008   4.195121
    19  H    2.471210   0.984055   4.687748   5.358426   4.644862
    20  N    3.341132   4.058317   1.297157   2.865865   3.290545
    21  O    3.286734   5.043936   1.321393   3.026220   2.612009
    22  H    4.362981   3.603113   3.526542   2.726407   3.819362
    23  H    3.932929   4.741938   2.016724   3.785954   4.128168
                   16         17         18         19         20
    16  H    0.000000
    17  H    3.467704   0.000000
    18  H    2.598926   2.375549   0.000000
    19  H    3.600926   4.303542   3.149942   0.000000
    20  N    3.923872   1.052876   3.310106   4.659557   0.000000
    21  O    4.517986   3.170662   5.029155   5.491796   2.236680
    22  H    2.421661   2.366391   1.672511   4.566362   3.262290
    23  H    4.915437   1.823621   4.081808   5.211632   1.015211
                   21         22         23
    21  O    0.000000
    22  H    4.836390   0.000000
    23  H    2.444890   4.156696   0.000000
 Stoichiometry    C5H13N2O3(1+)
 Framework group  C1[X(C5H13N2O3)]
 Deg. of freedom    63
 Full point group                 C1      NOp   1
 Largest Abelian subgroup         C1      NOp   1
 Largest concise Abelian subgroup C1      NOp   1
                         Standard orientation:                         
 ---------------------------------------------------------------------
 Center     Atomic      Atomic             Coordinates (Angstroms)
 Number     Number       Type             X           Y           Z
 ---------------------------------------------------------------------
      1          6           0       -4.369257   -0.943599    0.317014
      2          1           0       -5.273857   -1.546684    0.390988
      3          1           0       -3.656734   -1.470562   -0.321929
      4          1           0        2.347507   -2.131319   -0.642709
      5          1           0       -4.650796    0.020519   -0.115957
      6          1           0       -3.968705   -0.820978    1.327053
      7          6           0        1.648725    0.286857   -0.981420
      8          6           0        0.419568    1.165426   -0.687882
      9          6           0       -0.764949    0.247944   -0.423944
     10          7           0        0.637600    2.016092    0.497666
     11          8           0       -0.730502   -0.964692   -0.614102
     12          8           0       -1.820145    0.932683    0.048893
     13          6           0        1.944940   -0.637107    0.164313
     14          1           0        2.527878    0.917429   -1.159533
     15          1           0        1.464348   -0.299545   -1.883934
     16          1           0        0.186512    1.750605   -1.587414
     17          1           0        1.462092    0.769557    1.484297
     18          1           0       -0.242270    2.322027    0.911393
     19          1           0       -2.628272    0.392153    0.200956
     20          7           0        1.838365   -0.208661    1.384022
     21          8           0        2.368514   -1.876790   -0.008467
     22          1           0        1.240582    2.815078    0.315288
     23          1           0        2.042858   -0.817038    2.170606
 ---------------------------------------------------------------------
 Rotational constants (GHZ):      1.8082384      0.7179317      0.6064885
 Leave Link  202 at Thu Mar 12 19:25:17 2020, MaxMem=    33554432 cpu:         0.0
 (Enter /usr/local/gaussian09d01/g09/l301.exe)
 Standard basis: 6-31G (6D, 7F)
 Ernie: Thresh=  0.10000D-02 Tol=  0.10000D-05 Strict=F.
 There are   116 symmetry adapted cartesian basis functions of A   symmetry.
 There are   116 symmetry adapted basis functions of A   symmetry.
   116 basis functions,   272 primitive gaussians,   116 cartesian basis functions
    40 alpha electrons       40 beta electrons
       nuclear repulsion energy       588.9392173835 Hartrees.
 IExCor= 4336 DFT=T Ex+Corr=M062X ExCW=0 ScaHFX=  0.540000
 ScaDFX=  1.000000  1.000000  1.000000  1.000000 ScalE2=  1.000000  1.000000
 IRadAn=      0 IRanWt=     -1 IRanGd=            0 ICorTp=0 IEmpDi=  4
 NAtoms=   23 NActive=   23 NUniq=   23 SFac= 1.00D+00 NAtFMM=   60 NAOKFM=F Big=F
 Integral buffers will be    131072 words long.
 Raffenetti 2 integral format.
 Two-electron integral symmetry is turned on.
 Leave Link  301 at Thu Mar 12 19:25:17 2020, MaxMem=    33554432 cpu:         0.0
 (Enter /usr/local/gaussian09d01/g09/l302.exe)
 NPDir=0 NMtPBC=     1 NCelOv=     1 NCel=       1 NClECP=     1 NCelD=      1
         NCelK=      1 NCelE2=     1 NClLst=     1 CellRange=     0.0.
 One-electron integrals computed using PRISM.
 NBasis=   116 RedAO= T EigKep=  3.51D-03  NBF=   116
 NBsUse=   116 1.00D-06 EigRej= -1.00D+00 NBFU=   116
 Precomputing XC quadrature grid using
 IXCGrd= 4 IRadAn=           0 IRanWt=          -1 IRanGd=           0 AccXCQ= 0.00D+00.
 Generated NRdTot=       0 NPtTot=           0 NUsed=           0 NTot=          32
 NSgBfM=   115   115   115   115   115 MxSgAt=    23 MxSgA2=    23.
 Leave Link  302 at Thu Mar 12 19:25:17 2020, MaxMem=    33554432 cpu:         0.3
 (Enter /usr/local/gaussian09d01/g09/l303.exe)
 DipDrv:  MaxL=1.
 Leave Link  303 at Thu Mar 12 19:25:17 2020, MaxMem=    33554432 cpu:         0.0
 (Enter /usr/local/gaussian09d01/g09/l401.exe)
 ExpMin= 1.61D-01 ExpMax= 5.48D+03 ExpMxC= 8.25D+02 IAcc=1 IRadAn=         1 AccDes= 0.00D+00
 Harris functional with IExCor= 1009 and IRadAn=       1 diagonalized for initial guess.
 HarFok:  IExCor= 1009 AccDes= 0.00D+00 IRadAn=         1 IDoV= 1 UseB2=F ITyADJ=14
 ICtDFT=  3500011 ScaDFX=  1.000000  1.000000  1.000000  1.000000
 FoFCou: FMM=F IPFlag=           0 FMFlag=      100000 FMFlg1=           0
         NFxFlg=           0 DoJE=T BraDBF=F KetDBF=T FulRan=T
         wScrn=  0.000000 ICntrl=     500 IOpCl=  0 I1Cent=   200000004 NGrid=           0
         NMat0=    1 NMatS0=      1 NMatT0=    0 NMatD0=    1 NMtDS0=    0 NMtDT0=    0
 Petite list used in FoFCou.
 Harris En= -532.593811437536    
 JPrj=0 DoOrth=F DoCkMO=F.
 Leave Link  401 at Thu Mar 12 19:25:18 2020, MaxMem=    33554432 cpu:         0.9
 (Enter /usr/local/gaussian09d01/g09/l502.exe)
 Closed shell SCF:
 Using DIIS extrapolation, IDIIS=  1040.
 Integral symmetry usage will be decided dynamically.
 Keep R1 ints in memory in canonical form, NReq=24030401.
 IVT=       60528 IEndB=       60528 NGot=    33554432 MDV=    10465614
 LenX=    10465614 LenY=    10451717
 Requested convergence on RMS density matrix=1.00D-08 within 128 cycles.
 Requested convergence on MAX density matrix=1.00D-06.
 Requested convergence on             energy=1.00D-06.
 No special actions if energy rises.
 FoFCou: FMM=F IPFlag=           0 FMFlag=           0 FMFlg1=           0
         NFxFlg=           0 DoJE=F BraDBF=F KetDBF=F FulRan=T
         wScrn=  0.000000 ICntrl=     600 IOpCl=  0 I1Cent=           0 NGrid=           0
         NMat0=    1 NMatS0=   6786 NMatT0=    0 NMatD0=    1 NMtDS0=    0 NMtDT0=    0
 Symmetry not used in FoFCou.
 Integral accuracy reduced to 1.0D-05 until final iterations.

 Cycle   1  Pass 0  IDiag  1:
 E= -532.454418617580    
 DIIS: error= 5.34D-02 at cycle   1 NSaved=   1.
 NSaved= 1 IEnMin= 1 EnMin= -532.454418617580     IErMin= 1 ErrMin= 5.34D-02
 ErrMax= 5.34D-02  0.00D+00 EMaxC= 1.00D-01 BMatC= 3.65D-01 BMatP= 3.65D-01
 IDIUse=3 WtCom= 4.66D-01 WtEn= 5.34D-01
 Coeff-Com:  0.100D+01
 Coeff-En:   0.100D+01
 Coeff:      0.100D+01
 Gap=     0.247 Goal=   None    Shift=    0.000
 GapD=    0.247 DampG=1.000 DampE=0.500 DampFc=0.5000 IDamp=-1.
 Damping current iteration by 5.00D-01
 RMSDP=9.01D-03 MaxDP=1.65D-01              OVMax= 1.77D-01

 Cycle   2  Pass 0  IDiag  1:
 E= -532.595839105175     Delta-E=       -0.141420487595 Rises=F Damp=T
 DIIS: error= 1.19D-02 at cycle   2 NSaved=   2.
 NSaved= 2 IEnMin= 2 EnMin= -532.595839105175     IErMin= 2 ErrMin= 1.19D-02
 ErrMax= 1.19D-02  0.00D+00 EMaxC= 1.00D-01 BMatC= 1.99D-02 BMatP= 3.65D-01
 IDIUse=3 WtCom= 8.81D-01 WtEn= 1.19D-01
 Coeff-Com:  0.362D-01 0.964D+00
 Coeff-En:   0.489D-01 0.951D+00
 Coeff:      0.378D-01 0.962D+00
 Gap=     0.357 Goal=   None    Shift=    0.000
 RMSDP=2.17D-03 MaxDP=3.92D-02 DE=-1.41D-01 OVMax= 1.11D-01

 Cycle   3  Pass 0  IDiag  1:
 E= -532.745082509306     Delta-E=       -0.149243404131 Rises=F Damp=F
 DIIS: error= 1.20D-02 at cycle   3 NSaved=   3.
 NSaved= 3 IEnMin= 3 EnMin= -532.745082509306     IErMin= 2 ErrMin= 1.19D-02
 ErrMax= 1.20D-02  0.00D+00 EMaxC= 1.00D-01 BMatC= 1.60D-02 BMatP= 1.99D-02
 IDIUse=3 WtCom= 8.80D-01 WtEn= 1.20D-01
 Coeff-Com: -0.182D-01 0.474D+00 0.544D+00
 Coeff-En:   0.000D+00 0.000D+00 0.100D+01
 Coeff:     -0.160D-01 0.417D+00 0.599D+00
 Gap=     0.329 Goal=   None    Shift=    0.000
 RMSDP=1.44D-03 MaxDP=3.69D-02 DE=-1.49D-01 OVMax= 5.80D-02

 Cycle   4  Pass 0  IDiag  1:
 E= -532.755541480809     Delta-E=       -0.010458971503 Rises=F Damp=F
 DIIS: error= 7.75D-03 at cycle   4 NSaved=   4.
 NSaved= 4 IEnMin= 4 EnMin= -532.755541480809     IErMin= 4 ErrMin= 7.75D-03
 ErrMax= 7.75D-03  0.00D+00 EMaxC= 1.00D-01 BMatC= 3.87D-03 BMatP= 1.60D-02
 IDIUse=3 WtCom= 9.23D-01 WtEn= 7.75D-02
 Coeff-Com: -0.631D-02 0.433D-01 0.336D+00 0.627D+00
 Coeff-En:   0.000D+00 0.000D+00 0.189D+00 0.811D+00
 Coeff:     -0.582D-02 0.399D-01 0.324D+00 0.642D+00
 Gap=     0.327 Goal=   None    Shift=    0.000
 RMSDP=5.49D-04 MaxDP=1.21D-02 DE=-1.05D-02 OVMax= 1.94D-02

 Cycle   5  Pass 0  IDiag  1:
 E= -532.758308199014     Delta-E=       -0.002766718205 Rises=F Damp=F
 DIIS: error= 1.16D-03 at cycle   5 NSaved=   5.
 NSaved= 5 IEnMin= 5 EnMin= -532.758308199014     IErMin= 5 ErrMin= 1.16D-03
 ErrMax= 1.16D-03  0.00D+00 EMaxC= 1.00D-01 BMatC= 1.95D-04 BMatP= 3.87D-03
 IDIUse=3 WtCom= 9.88D-01 WtEn= 1.16D-02
 Coeff-Com: -0.852D-03-0.756D-02 0.135D+00 0.330D+00 0.544D+00
 Coeff-En:   0.000D+00 0.000D+00 0.000D+00 0.000D+00 0.100D+01
 Coeff:     -0.842D-03-0.747D-02 0.133D+00 0.326D+00 0.549D+00
 Gap=     0.324 Goal=   None    Shift=    0.000
 RMSDP=1.18D-04 MaxDP=2.18D-03 DE=-2.77D-03 OVMax= 4.19D-03

 Cycle   6  Pass 0  IDiag  1:
 E= -532.758479331986     Delta-E=       -0.000171132971 Rises=F Damp=F
 DIIS: error= 3.02D-04 at cycle   6 NSaved=   6.
 NSaved= 6 IEnMin= 6 EnMin= -532.758479331986     IErMin= 6 ErrMin= 3.02D-04
 ErrMax= 3.02D-04  0.00D+00 EMaxC= 1.00D-01 BMatC= 4.64D-06 BMatP= 1.95D-04
 IDIUse=3 WtCom= 9.97D-01 WtEn= 3.02D-03
 Coeff-Com:  0.464D-03-0.404D-02 0.214D-01 0.458D-01 0.150D+00 0.786D+00
 Coeff-En:   0.000D+00 0.000D+00 0.000D+00 0.000D+00 0.000D+00 0.100D+01
 Coeff:      0.463D-03-0.403D-02 0.214D-01 0.457D-01 0.149D+00 0.787D+00
 Gap=     0.324 Goal=   None    Shift=    0.000
 RMSDP=2.59D-05 MaxDP=3.82D-04 DE=-1.71D-04 OVMax= 5.78D-04

 Cycle   7  Pass 0  IDiag  1:
 E= -532.758483509665     Delta-E=       -0.000004177679 Rises=F Damp=F
 DIIS: error= 8.67D-05 at cycle   7 NSaved=   7.
 NSaved= 7 IEnMin= 7 EnMin= -532.758483509665     IErMin= 7 ErrMin= 8.67D-05
 ErrMax= 8.67D-05  0.00D+00 EMaxC= 1.00D-01 BMatC= 5.52D-07 BMatP= 4.64D-06
 IDIUse=1 WtCom= 1.00D+00 WtEn= 0.00D+00
 Coeff-Com:  0.377D-03-0.550D-03-0.112D-01-0.339D-01-0.217D-01 0.242D+00
 Coeff-Com:  0.825D+00
 Coeff:      0.377D-03-0.550D-03-0.112D-01-0.339D-01-0.217D-01 0.242D+00
 Coeff:      0.825D+00
 Gap=     0.324 Goal=   None    Shift=    0.000
 RMSDP=1.39D-05 MaxDP=2.66D-04 DE=-4.18D-06 OVMax= 3.26D-04

 Cycle   8  Pass 0  IDiag  1:
 E= -532.758484192831     Delta-E=       -0.000000683166 Rises=F Damp=F
 DIIS: error= 3.18D-05 at cycle   8 NSaved=   8.
 NSaved= 8 IEnMin= 8 EnMin= -532.758484192831     IErMin= 8 ErrMin= 3.18D-05
 ErrMax= 3.18D-05  0.00D+00 EMaxC= 1.00D-01 BMatC= 5.82D-08 BMatP= 5.52D-07
 IDIUse=1 WtCom= 1.00D+00 WtEn= 0.00D+00
 Coeff-Com:  0.963D-04 0.155D-03-0.534D-02-0.157D-01-0.197D-01 0.406D-02
 Coeff-Com:  0.292D+00 0.745D+00
 Coeff:      0.963D-04 0.155D-03-0.534D-02-0.157D-01-0.197D-01 0.406D-02
 Coeff:      0.292D+00 0.745D+00
 Gap=     0.324 Goal=   None    Shift=    0.000
 RMSDP=3.49D-06 MaxDP=5.05D-05 DE=-6.83D-07 OVMax= 9.24D-05

 Initial convergence to 1.0D-05 achieved.  Increase integral accuracy.
 Cycle   9  Pass 1  IDiag  1:
 E= -532.758584167248     Delta-E=       -0.000099974417 Rises=F Damp=F
 DIIS: error= 1.40D-04 at cycle   1 NSaved=   1.
 NSaved= 1 IEnMin= 1 EnMin= -532.758584167248     IErMin= 1 ErrMin= 1.40D-04
 ErrMax= 1.40D-04  0.00D+00 EMaxC= 1.00D-01 BMatC= 2.00D-06 BMatP= 2.00D-06
 IDIUse=3 WtCom= 9.99D-01 WtEn= 1.40D-03
 Coeff-Com:  0.100D+01
 Coeff-En:   0.100D+01
 Coeff:      0.100D+01
 Gap=     0.324 Goal=   None    Shift=    0.000
 RMSDP=3.49D-06 MaxDP=5.05D-05 DE=-1.00D-04 OVMax= 1.98D-04

 Cycle  10  Pass 1  IDiag  1:
 E= -532.758586009793     Delta-E=       -0.000001842545 Rises=F Damp=F
 DIIS: error= 7.00D-05 at cycle   2 NSaved=   2.
 NSaved= 2 IEnMin= 2 EnMin= -532.758586009793     IErMin= 2 ErrMin= 7.00D-05
 ErrMax= 7.00D-05  0.00D+00 EMaxC= 1.00D-01 BMatC= 3.05D-07 BMatP= 2.00D-06
 IDIUse=1 WtCom= 1.00D+00 WtEn= 0.00D+00
 Coeff-Com:  0.190D+00 0.810D+00
 Coeff:      0.190D+00 0.810D+00
 Gap=     0.324 Goal=   None    Shift=    0.000
 RMSDP=7.16D-06 MaxDP=1.42D-04 DE=-1.84D-06 OVMax= 1.56D-04

 Cycle  11  Pass 1  IDiag  1:
 E= -532.758586219796     Delta-E=       -0.000000210003 Rises=F Damp=F
 DIIS: error= 3.38D-05 at cycle   3 NSaved=   3.
 NSaved= 3 IEnMin= 3 EnMin= -532.758586219796     IErMin= 3 ErrMin= 3.38D-05
 ErrMax= 3.38D-05  0.00D+00 EMaxC= 1.00D-01 BMatC= 1.26D-07 BMatP= 3.05D-07
 IDIUse=1 WtCom= 1.00D+00 WtEn= 0.00D+00
 Coeff-Com: -0.385D-01 0.377D+00 0.662D+00
 Coeff:     -0.385D-01 0.377D+00 0.662D+00
 Gap=     0.324 Goal=   None    Shift=    0.000
 RMSDP=3.41D-06 MaxDP=7.89D-05 DE=-2.10D-07 OVMax= 6.71D-05

 Cycle  12  Pass 1  IDiag  1:
 E= -532.758586327688     Delta-E=       -0.000000107892 Rises=F Damp=F
 DIIS: error= 6.37D-06 at cycle   4 NSaved=   4.
 NSaved= 4 IEnMin= 4 EnMin= -532.758586327688     IErMin= 4 ErrMin= 6.37D-06
 ErrMax= 6.37D-06  0.00D+00 EMaxC= 1.00D-01 BMatC= 7.93D-09 BMatP= 1.26D-07
 IDIUse=1 WtCom= 1.00D+00 WtEn= 0.00D+00
 Coeff-Com: -0.260D-01 0.164D+00 0.336D+00 0.526D+00
 Coeff:     -0.260D-01 0.164D+00 0.336D+00 0.526D+00
 Gap=     0.324 Goal=   None    Shift=    0.000
 RMSDP=7.54D-07 MaxDP=1.76D-05 DE=-1.08D-07 OVMax= 2.28D-05

 Cycle  13  Pass 1  IDiag  1:
 E= -532.758586334062     Delta-E=       -0.000000006374 Rises=F Damp=F
 DIIS: error= 2.80D-06 at cycle   5 NSaved=   5.
 NSaved= 5 IEnMin= 5 EnMin= -532.758586334062     IErMin= 5 ErrMin= 2.80D-06
 ErrMax= 2.80D-06  0.00D+00 EMaxC= 1.00D-01 BMatC= 4.73D-10 BMatP= 7.93D-09
 IDIUse=1 WtCom= 1.00D+00 WtEn= 0.00D+00
 Coeff-Com: -0.486D-02 0.104D-01 0.354D-01 0.188D+00 0.772D+00
 Coeff:     -0.486D-02 0.104D-01 0.354D-01 0.188D+00 0.772D+00
 Gap=     0.324 Goal=   None    Shift=    0.000
 RMSDP=3.25D-07 MaxDP=6.35D-06 DE=-6.37D-09 OVMax= 7.48D-06

 Cycle  14  Pass 1  IDiag  1:
 E= -532.758586334389     Delta-E=       -0.000000000327 Rises=F Damp=F
 DIIS: error= 1.37D-06 at cycle   6 NSaved=   6.
 NSaved= 6 IEnMin= 6 EnMin= -532.758586334389     IErMin= 6 ErrMin= 1.37D-06
 ErrMax= 1.37D-06  0.00D+00 EMaxC= 1.00D-01 BMatC= 1.87D-10 BMatP= 4.73D-10
 IDIUse=1 WtCom= 1.00D+00 WtEn= 0.00D+00
 Coeff-Com:  0.122D-02-0.186D-01-0.302D-01 0.343D-01 0.452D+00 0.562D+00
 Coeff:      0.122D-02-0.186D-01-0.302D-01 0.343D-01 0.452D+00 0.562D+00
 Gap=     0.324 Goal=   None    Shift=    0.000
 RMSDP=1.12D-07 MaxDP=3.13D-06 DE=-3.27D-10 OVMax= 5.59D-06

 Cycle  15  Pass 1  IDiag  1:
 E= -532.758586334549     Delta-E=       -0.000000000161 Rises=F Damp=F
 DIIS: error= 3.67D-07 at cycle   7 NSaved=   7.
 NSaved= 7 IEnMin= 7 EnMin= -532.758586334549     IErMin= 7 ErrMin= 3.67D-07
 ErrMax= 3.67D-07  0.00D+00 EMaxC= 1.00D-01 BMatC= 6.22D-12 BMatP= 1.87D-10
 IDIUse=1 WtCom= 1.00D+00 WtEn= 0.00D+00
 Coeff-Com:  0.629D-03-0.525D-02-0.102D-01-0.201D-02 0.392D-01 0.165D+00
 Coeff-Com:  0.813D+00
 Coeff:      0.629D-03-0.525D-02-0.102D-01-0.201D-02 0.392D-01 0.165D+00
 Coeff:      0.813D+00
 Gap=     0.324 Goal=   None    Shift=    0.000
 RMSDP=3.99D-08 MaxDP=6.72D-07 DE=-1.61D-10 OVMax= 1.04D-06

 Cycle  16  Pass 1  IDiag  1:
 E= -532.758586334544     Delta-E=        0.000000000005 Rises=F Damp=F
 DIIS: error= 9.00D-08 at cycle   8 NSaved=   8.
 NSaved= 8 IEnMin= 7 EnMin= -532.758586334549     IErMin= 8 ErrMin= 9.00D-08
 ErrMax= 9.00D-08  0.00D+00 EMaxC= 1.00D-01 BMatC= 1.14D-12 BMatP= 6.22D-12
 IDIUse=1 WtCom= 1.00D+00 WtEn= 0.00D+00
 Coeff-Com:  0.114D-03 0.171D-03-0.580D-03-0.514D-02-0.501D-01 0.282D-02
 Coeff-Com:  0.363D+00 0.690D+00
 Coeff:      0.114D-03 0.171D-03-0.580D-03-0.514D-02-0.501D-01 0.282D-02
 Coeff:      0.363D+00 0.690D+00
 Gap=     0.324 Goal=   None    Shift=    0.000
 RMSDP=1.37D-08 MaxDP=2.90D-07 DE= 5.23D-12 OVMax= 3.99D-07

 Cycle  17  Pass 1  IDiag  1:
 E= -532.758586334554     Delta-E=       -0.000000000010 Rises=F Damp=F
 DIIS: error= 2.31D-08 at cycle   9 NSaved=   9.
 NSaved= 9 IEnMin= 9 EnMin= -532.758586334554     IErMin= 9 ErrMin= 2.31D-08
 ErrMax= 2.31D-08  0.00D+00 EMaxC= 1.00D-01 BMatC= 9.30D-14 BMatP= 1.14D-12
 IDIUse=1 WtCom= 1.00D+00 WtEn= 0.00D+00
 Coeff-Com: -0.229D-04 0.569D-03 0.856D-03-0.131D-02-0.209D-01-0.133D-01
 Coeff-Com:  0.282D-01 0.236D+00 0.770D+00
 Coeff:     -0.229D-04 0.569D-03 0.856D-03-0.131D-02-0.209D-01-0.133D-01
 Coeff:      0.282D-01 0.236D+00 0.770D+00
 Gap=     0.324 Goal=   None    Shift=    0.000
 RMSDP=4.76D-09 MaxDP=8.29D-08 DE=-9.55D-12 OVMax= 1.92D-07

 SCF Done:  E(RM062X) =  -532.758586335     A.U. after   17 cycles
            NFock= 17  Conv=0.48D-08     -V/T= 2.0035
 KE= 5.308776408102D+02 PE=-2.409749086509D+03 EE= 7.571736419808D+02
 Leave Link  502 at Thu Mar 12 19:26:13 2020, MaxMem=    33554432 cpu:        55.4
 (Enter /usr/local/gaussian09d01/g09/l601.exe)
 Copying SCF densities to generalized density rwf, IOpCl= 0 IROHF=0.

 **********************************************************************

            Population analysis using the SCF density.

 **********************************************************************

 Orbital symmetries:
       Occupied  (A) (A) (A) (A) (A) (A) (A) (A) (A) (A) (A) (A)
                 (A) (A) (A) (A) (A) (A) (A) (A) (A) (A) (A) (A)
                 (A) (A) (A) (A) (A) (A) (A) (A) (A) (A) (A) (A)
                 (A) (A) (A) (A)
       Virtual   (A) (A) (A) (A) (A) (A) (A) (A) (A) (A) (A) (A)
                 (A) (A) (A) (A) (A) (A) (A) (A) (A) (A) (A) (A)
                 (A) (A) (A) (A) (A) (A) (A) (A) (A) (A) (A) (A)
                 (A) (A) (A) (A) (A) (A) (A) (A) (A) (A) (A) (A)
                 (A) (A) (A) (A) (A) (A) (A) (A) (A) (A) (A) (A)
                 (A) (A) (A) (A) (A) (A) (A) (A) (A) (A) (A) (A)
                 (A) (A) (A) (A)
 The electronic state is 1-A.
 Alpha  occ. eigenvalues --  -19.87036 -19.84288 -19.80813 -14.99479 -14.93209
 Alpha  occ. eigenvalues --  -10.90704 -10.86453 -10.78295 -10.75944 -10.63153
 Alpha  occ. eigenvalues --   -1.51301  -1.40530  -1.31527  -1.27749  -1.18793
 Alpha  occ. eigenvalues --   -1.07233  -1.01168  -0.96509  -0.90159  -0.87619
 Alpha  occ. eigenvalues --   -0.84917  -0.80350  -0.78083  -0.74431  -0.74164
 Alpha  occ. eigenvalues --   -0.73881  -0.72985  -0.69674  -0.66808  -0.65395
 Alpha  occ. eigenvalues --   -0.64136  -0.63086  -0.61012  -0.57624  -0.57157
 Alpha  occ. eigenvalues --   -0.56950  -0.56025  -0.54426  -0.51876  -0.49677
 Alpha virt. eigenvalues --   -0.17254  -0.12519  -0.04186  -0.01898  -0.01387
 Alpha virt. eigenvalues --   -0.00012   0.00772   0.01450   0.04518   0.05712
 Alpha virt. eigenvalues --    0.06135   0.07016   0.07849   0.10924   0.11142
 Alpha virt. eigenvalues --    0.11509   0.11996   0.12677   0.16236   0.18520
 Alpha virt. eigenvalues --    0.20844   0.23209   0.27426   0.38464   0.40867
 Alpha virt. eigenvalues --    0.43587   0.45459   0.45910   0.47901   0.48056
 Alpha virt. eigenvalues --    0.49390   0.51420   0.51776   0.54832   0.57597
 Alpha virt. eigenvalues --    0.58068   0.59461   0.62660   0.63942   0.67490
 Alpha virt. eigenvalues --    0.69557   0.70669   0.75021   0.76076   0.77893
 Alpha virt. eigenvalues --    0.78450   0.80274   0.82613   0.83848   0.85420
 Alpha virt. eigenvalues --    0.86318   0.87371   0.87952   0.88342   0.91783
 Alpha virt. eigenvalues --    0.92122   0.94431   0.94983   0.96063   1.01821
 Alpha virt. eigenvalues --    1.03890   1.06457   1.09418   1.11270   1.13099
 Alpha virt. eigenvalues --    1.18802   1.22477   1.29343   1.33259   1.38081
 Alpha virt. eigenvalues --    1.42445   1.55658   1.63924   1.73116   1.76358
 Alpha virt. eigenvalues --    1.85760
          Condensed to atoms (all electrons):
               1          2          3          4          5          6
     1  C    5.189496   0.375570   0.371716   0.000000   0.370114   0.370635
     2  H    0.375570   0.468044  -0.017855   0.000000  -0.019744  -0.020202
     3  H    0.371716  -0.017855   0.520833   0.000000  -0.029575  -0.030201
     4  H    0.000000   0.000000   0.000000   0.404716   0.000000   0.000000
     5  H    0.370114  -0.019744  -0.029575   0.000000   0.538180  -0.032317
     6  H    0.370635  -0.020202  -0.030201   0.000000  -0.032317   0.545965
     7  C    0.000000   0.000000  -0.000001  -0.008666   0.000000   0.000000
     8  C   -0.000004   0.000001   0.000083  -0.000037  -0.000011  -0.000007
     9  C    0.000288   0.000037   0.001471   0.000082  -0.000155  -0.000131
    10  N    0.000000   0.000000  -0.000001   0.000037   0.000000   0.000000
    11  O   -0.001294   0.000015   0.003229   0.000466   0.000043   0.000016
    12  O   -0.005293   0.000175  -0.001611   0.000001  -0.000769  -0.000637
    13  C    0.000000   0.000000   0.000000  -0.021135   0.000000   0.000000
    14  H    0.000000   0.000000   0.000000  -0.000243   0.000000   0.000000
    15  H    0.000000   0.000000   0.000000   0.002744   0.000000   0.000000
    16  H    0.000001   0.000000  -0.000002   0.000008   0.000000   0.000000
    17  H    0.000000   0.000000   0.000000  -0.000023   0.000000   0.000000
    18  H   -0.000001   0.000000   0.000000   0.000000   0.000000   0.000000
    19  H    0.027202  -0.000951   0.002071   0.000000   0.005238   0.004756
    20  N    0.000000   0.000000   0.000000   0.007343   0.000000   0.000000
    21  O    0.000000   0.000000   0.000000   0.339063   0.000000   0.000000
    22  H    0.000000   0.000000   0.000000  -0.000001   0.000000   0.000000
    23  H    0.000000   0.000000   0.000000   0.000083   0.000000   0.000000
               7          8          9         10         11         12
     1  C    0.000000  -0.000004   0.000288   0.000000  -0.001294  -0.005293
     2  H    0.000000   0.000001   0.000037   0.000000   0.000015   0.000175
     3  H   -0.000001   0.000083   0.001471  -0.000001   0.003229  -0.001611
     4  H   -0.008666  -0.000037   0.000082   0.000037   0.000466   0.000001
     5  H    0.000000  -0.000011  -0.000155   0.000000   0.000043  -0.000769
     6  H    0.000000  -0.000007  -0.000131   0.000000   0.000016  -0.000637
     7  C    5.457351   0.218866  -0.048001  -0.075120   0.007702   0.005326
     8  C    0.218866   5.570745   0.149657   0.192251  -0.124429  -0.148262
     9  C   -0.048001   0.149657   4.755574  -0.049184   0.493961   0.196465
    10  N   -0.075120   0.192251  -0.049184   7.097013   0.002207   0.001773
    11  O    0.007702  -0.124429   0.493961   0.002207   8.123590  -0.108326
    12  O    0.005326  -0.148262   0.196465   0.001773  -0.108326   8.415694
    13  C    0.258639  -0.015450  -0.007371  -0.006762   0.011886  -0.000492
    14  H    0.376471  -0.027884   0.005563  -0.001439   0.000420  -0.000024
    15  H    0.366034  -0.027329  -0.001821   0.003700   0.004629   0.000132
    16  H   -0.043278   0.385892  -0.026530  -0.035582   0.001048   0.000874
    17  H   -0.010184  -0.010888  -0.000584   0.097368   0.000198  -0.000074
    18  H    0.004837  -0.034085  -0.007413   0.320658   0.000226   0.013201
    19  H   -0.000157   0.005366  -0.018884  -0.000116  -0.000708   0.237036
    20  N   -0.108194   0.003131  -0.000038  -0.075566  -0.003552   0.000050
    21  O   -0.070635   0.002649  -0.000430  -0.000165  -0.001649  -0.000001
    22  H   -0.000855  -0.029133   0.004122   0.322151  -0.000080  -0.000003
    23  H    0.003392  -0.000186  -0.000100   0.001444   0.000020   0.000003
              13         14         15         16         17         18
     1  C    0.000000   0.000000   0.000000   0.000001   0.000000  -0.000001
     2  H    0.000000   0.000000   0.000000   0.000000   0.000000   0.000000
     3  H    0.000000   0.000000   0.000000  -0.000002   0.000000   0.000000
     4  H   -0.021135  -0.000243   0.002744   0.000008  -0.000023   0.000000
     5  H    0.000000   0.000000   0.000000   0.000000   0.000000   0.000000
     6  H    0.000000   0.000000   0.000000   0.000000   0.000000   0.000000
     7  C    0.258639   0.376471   0.366034  -0.043278  -0.010184   0.004837
     8  C   -0.015450  -0.027884  -0.027329   0.385892  -0.010888  -0.034085
     9  C   -0.007371   0.005563  -0.001821  -0.026530  -0.000584  -0.007413
    10  N   -0.006762  -0.001439   0.003700  -0.035582   0.097368   0.320658
    11  O    0.011886   0.000420   0.004629   0.001048   0.000198   0.000226
    12  O   -0.000492  -0.000024   0.000132   0.000874  -0.000074   0.013201
    13  C    4.633114  -0.035238  -0.029743   0.004139  -0.018371   0.000203
    14  H   -0.035238   0.437551  -0.015260  -0.003168  -0.000284  -0.000054
    15  H   -0.029743  -0.015260   0.452799  -0.000699   0.000379  -0.000098
    16  H    0.004139  -0.003168  -0.000699   0.456637   0.001002   0.000997
    17  H   -0.018371  -0.000284   0.000379   0.001002   0.250752  -0.000470
    18  H    0.000203  -0.000054  -0.000098   0.000997  -0.000470   0.336077
    19  H   -0.000012   0.000002  -0.000002  -0.000243  -0.000021  -0.000257
    20  N    0.293344  -0.001945   0.004436  -0.000319   0.232911   0.000280
    21  O    0.388814   0.000903  -0.002984  -0.000068   0.000996   0.000002
    22  H   -0.000263   0.001610  -0.000069  -0.003766  -0.001592  -0.020641
    23  H   -0.019768  -0.000124  -0.000063   0.000010  -0.001757  -0.000011
              19         20         21         22         23
     1  C    0.027202   0.000000   0.000000   0.000000   0.000000
     2  H   -0.000951   0.000000   0.000000   0.000000   0.000000
     3  H    0.002071   0.000000   0.000000   0.000000   0.000000
     4  H    0.000000   0.007343   0.339063  -0.000001   0.000083
     5  H    0.005238   0.000000   0.000000   0.000000   0.000000
     6  H    0.004756   0.000000   0.000000   0.000000   0.000000
     7  C   -0.000157  -0.108194  -0.070635  -0.000855   0.003392
     8  C    0.005366   0.003131   0.002649  -0.029133  -0.000186
     9  C   -0.018884  -0.000038  -0.000430   0.004122  -0.000100
    10  N   -0.000116  -0.075566  -0.000165   0.322151   0.001444
    11  O   -0.000708  -0.003552  -0.001649  -0.000080   0.000020
    12  O    0.237036   0.000050  -0.000001  -0.000003   0.000003
    13  C   -0.000012   0.293344   0.388814  -0.000263  -0.019768
    14  H    0.000002  -0.001945   0.000903   0.001610  -0.000124
    15  H   -0.000002   0.004436  -0.002984  -0.000069  -0.000063
    16  H   -0.000243  -0.000319  -0.000068  -0.003766   0.000010
    17  H   -0.000021   0.232911   0.000996  -0.001592  -0.001757
    18  H   -0.000257   0.000280   0.000002  -0.020641  -0.000011
    19  H    0.274087   0.000012   0.000000   0.000016  -0.000001
    20  N    0.000012   7.129918  -0.110782   0.000928   0.306598
    21  O    0.000000  -0.110782   7.806147   0.000002  -0.000764
    22  H    0.000016   0.000928   0.000002   0.368770  -0.000020
    23  H   -0.000001   0.306598  -0.000764  -0.000020   0.289474
 Mulliken charges:
               1
     1  C   -0.698431
     2  H    0.214910
     3  H    0.179843
     4  H    0.275562
     5  H    0.168995
     6  H    0.162122
     7  C   -0.333528
     8  C   -0.110936
     9  C    0.553424
    10  N   -0.794668
    11  O   -0.409619
    12  O   -0.605238
    13  C    0.564465
    14  H    0.263143
    15  H    0.243216
    16  H    0.263045
    17  H    0.460642
    18  H    0.386549
    19  H    0.465566
    20  N   -0.678557
    21  O   -0.351097
    22  H    0.358824
    23  H    0.421770
 Sum of Mulliken charges =   1.00000
 Mulliken charges with hydrogens summed into heavy atoms:
               1
     1  C    0.027438
     7  C    0.172830
     8  C    0.152109
     9  C    0.553424
    10  N   -0.049295
    11  O   -0.409619
    12  O   -0.139672
    13  C    0.564465
    20  N    0.203855
    21  O   -0.075535
 Electronic spatial extent (au):  <R**2>=           1992.5820
 Charge=              1.0000 electrons
 Dipole moment (field-independent basis, Debye):
    X=              4.5854    Y=              2.3721    Z=              0.2206  Tot=              5.1673
 Quadrupole moment (field-independent basis, Debye-Ang):
   XX=            -33.4108   YY=            -49.2196   ZZ=            -48.1910
   XY=              0.0878   XZ=             -2.5579   YZ=             -0.1034
 Traceless Quadrupole moment (field-independent basis, Debye-Ang):
   XX=             10.1964   YY=             -5.6125   ZZ=             -4.5839
   XY=              0.0878   XZ=             -2.5579   YZ=             -0.1034
 Octapole moment (field-independent basis, Debye-Ang**2):
  XXX=            -20.0069  YYY=             18.8860  ZZZ=             12.7947  XYY=             20.9715
  XXY=            -15.5186  XXZ=              1.1727  XZZ=             22.5638  YZZ=             -4.4600
  YYZ=             -2.4005  XYZ=              3.9700
 Hexadecapole moment (field-independent basis, Debye-Ang**3):
 XXXX=          -1422.3872 YYYY=           -433.6353 ZZZZ=           -195.1728 XXXY=             28.3701
 XXXZ=            -26.7055 YYYX=             -8.2624 YYYZ=             31.3630 ZZZX=             29.9528
 ZZZY=             -8.4016 XXYY=           -335.2720 XXZZ=           -291.5727 YYZZ=           -111.5942
 XXYZ=              4.1678 YYXZ=            -18.1319 ZZXY=            -26.9580
 N-N= 5.889392173835D+02 E-N=-2.409749087840D+03  KE= 5.308776408102D+02
 No NMR shielding tensors so no spin-rotation constants.
 Leave Link  601 at Thu Mar 12 19:26:13 2020, MaxMem=    33554432 cpu:         0.1
 (Enter /usr/local/gaussian09d01/g09/l9999.exe)
 1\1\GINC-KARURA\SP\RM062X\6-31G\C5H13N2O3(1+)\RTAKE\12-Mar-2020\0\\#p 
 M062X/6-31G\\chk calc\\1,1\C,0,3.824482709,-1.14219544,1.17225369\H,0,
 4.799113079,-1.62961423,1.173808707\H,0,3.053614027,-1.916312598,1.160
 804944\H,0,-2.479347735,-2.612980747,-1.182566075\H,0,3.75960642,-0.53
 291794,2.07824618\H,0,3.765323683,-0.52154146,0.273951194\C,0,-2.40154
 2122,-0.705499021,0.492562549\C,0,-1.33365594,0.193207044,1.141270536\
 C,0,0.021967089,-0.47033751,0.950186539\N,0,-1.303304814,1.529148773,0
 .515945207\O,0,0.155929117,-1.611462803,0.51692019\O,0,1.024922388,0.3
 53392554,1.298656\C,0,-2.121889445,-0.918337302,-0.967112723\H,0,-3.39
 229932,-0.247402335,0.596496855\H,0,-2.419176945,-1.669900059,1.004436
 439\H,0,-1.526304416,0.239474424,2.221387894\H,0,-1.503902114,0.960750
 702,-1.170400229\H,0,-0.410560182,1.997532273,0.666150752\H,0,1.924402
 159,-0.039925506,1.230818645\N,0,-1.700457396,0.069239192,-1.694919761
 \O,0,-2.336854815,-2.071648312,-1.575178364\H,0,-2.071900591,2.1285565
 43,0.807834339\H,0,-1.514408501,-0.054510917,-2.685235696\\Version=ES6
 4L-G09RevD.01\State=1-A\HF=-532.7585863\RMSD=4.764e-09\Dipole=-1.81529
 16,0.8588186,-0.3164711\Quadrupole=7.1549337,-4.0532818,-3.1016519,0.8
 863795,2.7320142,0.0544746\PG=C01 [X(C5H13N2O3)]\\@


 PICNIC:  A SNACK IN THE GRASS.
 Job cpu time:       0 days  0 hours  0 minutes 56.8 seconds.
 File lengths (MBytes):  RWF=      7 Int=      0 D2E=      0 Chk=      2 Scr=      1
 Normal termination of Gaussian 09 at Thu Mar 12 19:26:13 2020.
