 Entering Gaussian System, Link 0=g09
 Input=./h4_o21_18.gjf
 Output=./h4_o21_18.log
 Initial command:
 /usr/local/gaussian09d01/g09/l1.exe "/scr/Gau-22705.inp" -scrdir="/scr/"
 Entering Link 1 = /usr/local/gaussian09d01/g09/l1.exe PID=     22706.
  
 Copyright (c) 1988,1990,1992,1993,1995,1998,2003,2009,2013,
            Gaussian, Inc.  All Rights Reserved.
  
 This is part of the Gaussian(R) 09 program.  It is based on
 the Gaussian(R) 03 system (copyright 2003, Gaussian, Inc.),
 the Gaussian(R) 98 system (copyright 1998, Gaussian, Inc.),
 the Gaussian(R) 94 system (copyright 1995, Gaussian, Inc.),
 the Gaussian 92(TM) system (copyright 1992, Gaussian, Inc.),
 the Gaussian 90(TM) system (copyright 1990, Gaussian, Inc.),
 the Gaussian 88(TM) system (copyright 1988, Gaussian, Inc.),
 the Gaussian 86(TM) system (copyright 1986, Carnegie Mellon
 University), and the Gaussian 82(TM) system (copyright 1983,
 Carnegie Mellon University). Gaussian is a federally registered
 trademark of Gaussian, Inc.
  
 This software contains proprietary and confidential information,
 including trade secrets, belonging to Gaussian, Inc.
  
 This software is provided under written license and may be
 used, copied, transmitted, or stored only in accord with that
 written license.
  
 The following legend is applicable only to US Government
 contracts under FAR:
  
                    RESTRICTED RIGHTS LEGEND
  
 Use, reproduction and disclosure by the US Government is
 subject to restrictions as set forth in subparagraphs (a)
 and (c) of the Commercial Computer Software - Restricted
 Rights clause in FAR 52.227-19.
  
 Gaussian, Inc.
 340 Quinnipiac St., Bldg. 40, Wallingford CT 06492
  
  
 ---------------------------------------------------------------
 Warning -- This program may not be used in any manner that
 competes with the business of Gaussian, Inc. or will provide
 assistance to any competitor of Gaussian, Inc.  The licensee
 of this program is prohibited from giving any competitor of
 Gaussian, Inc. access to this program.  By using this program,
 the user acknowledges that Gaussian, Inc. is engaged in the
 business of creating and licensing software in the field of
 computational chemistry and represents and warrants to the
 licensee that it is not a competitor of Gaussian, Inc. and that
 it will not use this program in any manner prohibited above.
 ---------------------------------------------------------------
  

 Cite this work as:
 Gaussian 09, Revision D.01,
 M. J. Frisch, G. W. Trucks, H. B. Schlegel, G. E. Scuseria, 
 M. A. Robb, J. R. Cheeseman, G. Scalmani, V. Barone, B. Mennucci, 
 G. A. Petersson, H. Nakatsuji, M. Caricato, X. Li, H. P. Hratchian, 
 A. F. Izmaylov, J. Bloino, G. Zheng, J. L. Sonnenberg, M. Hada, 
 M. Ehara, K. Toyota, R. Fukuda, J. Hasegawa, M. Ishida, T. Nakajima, 
 Y. Honda, O. Kitao, H. Nakai, T. Vreven, J. A. Montgomery, Jr., 
 J. E. Peralta, F. Ogliaro, M. Bearpark, J. J. Heyd, E. Brothers, 
 K. N. Kudin, V. N. Staroverov, T. Keith, R. Kobayashi, J. Normand, 
 K. Raghavachari, A. Rendell, J. C. Burant, S. S. Iyengar, J. Tomasi, 
 M. Cossi, N. Rega, J. M. Millam, M. Klene, J. E. Knox, J. B. Cross, 
 V. Bakken, C. Adamo, J. Jaramillo, R. Gomperts, R. E. Stratmann, 
 O. Yazyev, A. J. Austin, R. Cammi, C. Pomelli, J. W. Ochterski, 
 R. L. Martin, K. Morokuma, V. G. Zakrzewski, G. A. Voth, 
 P. Salvador, J. J. Dannenberg, S. Dapprich, A. D. Daniels, 
 O. Farkas, J. B. Foresman, J. V. Ortiz, J. Cioslowski, 
 and D. J. Fox, Gaussian, Inc., Wallingford CT, 2013.
 
 ******************************************
 Gaussian 09:  ES64L-G09RevD.01 24-Apr-2013
                12-Mar-2020 
 ******************************************
 --------------
 #p M062X/6-31G
 --------------
 1/38=1/1;
 2/12=2,17=6,18=5,40=1/2;
 3/5=1,6=6,11=2,16=1,25=1,30=1,74=-55/1,2,3;
 4//1;
 5/5=2,38=5/2;
 6/7=2,8=2,9=2,10=2,28=1/1;
 99/5=1,9=1/99;
 Leave Link    1 at Thu Mar 12 19:35:47 2020, MaxMem=           0 cpu:         0.0
 (Enter /usr/local/gaussian09d01/g09/l101.exe)
 --------
 chk calc
 --------
 Symbolic Z-matrix:
 Charge =  1 Multiplicity = 1
 C                     3.82448  -1.1422    1.17225 
 H                     4.79911  -1.62961   1.17381 
 H                     3.05361  -1.91631   1.1608 
 H                    -2.70327  -3.46365  -0.5656 
 H                     3.75961  -0.53292   2.07825 
 H                     3.76532  -0.52154   0.27395 
 C                    -2.40154  -0.7055    0.49256 
 C                    -1.33366   0.19321   1.14127 
 C                     0.02197  -0.47034   0.95019 
 N                    -1.3033    1.52915   0.51595 
 O                     0.15593  -1.61146   0.51692 
 O                     1.02492   0.35339   1.29866 
 C                    -2.12189  -0.91834  -0.96711 
 H                    -3.3923   -0.2474    0.5965 
 H                    -2.41918  -1.6699    1.00444 
 H                    -1.5263    0.23947   2.22139 
 H                    -1.5039    0.96075  -1.1704 
 H                    -0.41056   1.99753   0.66615 
 H                     1.9244   -0.03993   1.23082 
 N                    -1.70046   0.06924  -1.69492 
 O                    -2.33685  -2.07165  -1.57518 
 H                    -2.0719    2.12856   0.80783 
 H                    -1.51441  -0.05451  -2.68524 
 
 NAtoms=     23 NQM=       23 NQMF=       0 NMMI=      0 NMMIF=      0
                NMic=       0 NMicF=      0.
                    Isotopes and Nuclear Properties:
 (Nuclear quadrupole moments (NQMom) in fm**2, nuclear magnetic moments (NMagM)
  in nuclear magnetons)

  Atom         1           2           3           4           5           6           7           8           9          10
 IAtWgt=          12           1           1           1           1           1          12          12          12          14
 AtmWgt=  12.0000000   1.0078250   1.0078250   1.0078250   1.0078250   1.0078250  12.0000000  12.0000000  12.0000000  14.0030740
 NucSpn=           0           1           1           1           1           1           0           0           0           2
 AtZEff=   0.0000000   0.0000000   0.0000000   0.0000000   0.0000000   0.0000000   0.0000000   0.0000000   0.0000000   0.0000000
 NQMom=    0.0000000   0.0000000   0.0000000   0.0000000   0.0000000   0.0000000   0.0000000   0.0000000   0.0000000   2.0440000
 NMagM=    0.0000000   2.7928460   2.7928460   2.7928460   2.7928460   2.7928460   0.0000000   0.0000000   0.0000000   0.4037610
 AtZNuc=   6.0000000   1.0000000   1.0000000   1.0000000   1.0000000   1.0000000   6.0000000   6.0000000   6.0000000   7.0000000

  Atom        11          12          13          14          15          16          17          18          19          20
 IAtWgt=          16          16          12           1           1           1           1           1           1          14
 AtmWgt=  15.9949146  15.9949146  12.0000000   1.0078250   1.0078250   1.0078250   1.0078250   1.0078250   1.0078250  14.0030740
 NucSpn=           0           0           0           1           1           1           1           1           1           2
 AtZEff=   0.0000000   0.0000000   0.0000000   0.0000000   0.0000000   0.0000000   0.0000000   0.0000000   0.0000000   0.0000000
 NQMom=    0.0000000   0.0000000   0.0000000   0.0000000   0.0000000   0.0000000   0.0000000   0.0000000   0.0000000   2.0440000
 NMagM=    0.0000000   0.0000000   0.0000000   2.7928460   2.7928460   2.7928460   2.7928460   2.7928460   2.7928460   0.4037610
 AtZNuc=   8.0000000   8.0000000   6.0000000   1.0000000   1.0000000   1.0000000   1.0000000   1.0000000   1.0000000   7.0000000

  Atom        21          22          23
 IAtWgt=          16           1           1
 AtmWgt=  15.9949146   1.0078250   1.0078250
 NucSpn=           0           1           1
 AtZEff=   0.0000000   0.0000000   0.0000000
 NQMom=    0.0000000   0.0000000   0.0000000
 NMagM=    0.0000000   2.7928460   2.7928460
 AtZNuc=   8.0000000   1.0000000   1.0000000
 Leave Link  101 at Thu Mar 12 19:35:47 2020, MaxMem=    33554432 cpu:         0.0
 (Enter /usr/local/gaussian09d01/g09/l202.exe)
                          Input orientation:                          
 ---------------------------------------------------------------------
 Center     Atomic      Atomic             Coordinates (Angstroms)
 Number     Number       Type             X           Y           Z
 ---------------------------------------------------------------------
      1          6           0        3.824483   -1.142195    1.172254
      2          1           0        4.799113   -1.629614    1.173809
      3          1           0        3.053614   -1.916313    1.160805
      4          1           0       -2.703265   -3.463646   -0.565604
      5          1           0        3.759606   -0.532918    2.078246
      6          1           0        3.765324   -0.521541    0.273951
      7          6           0       -2.401542   -0.705499    0.492563
      8          6           0       -1.333656    0.193207    1.141271
      9          6           0        0.021967   -0.470338    0.950187
     10          7           0       -1.303305    1.529149    0.515945
     11          8           0        0.155929   -1.611463    0.516920
     12          8           0        1.024922    0.353393    1.298656
     13          6           0       -2.121889   -0.918337   -0.967113
     14          1           0       -3.392299   -0.247402    0.596497
     15          1           0       -2.419177   -1.669900    1.004436
     16          1           0       -1.526304    0.239474    2.221388
     17          1           0       -1.503902    0.960751   -1.170400
     18          1           0       -0.410560    1.997532    0.666151
     19          1           0        1.924402   -0.039926    1.230819
     20          7           0       -1.700457    0.069239   -1.694920
     21          8           0       -2.336855   -2.071648   -1.575178
     22          1           0       -2.071901    2.128557    0.807834
     23          1           0       -1.514409   -0.054511   -2.685236
 ---------------------------------------------------------------------
                    Distance matrix (angstroms):
                    1          2          3          4          5
     1  C    0.000000
     2  H    1.089717   0.000000
     3  H    1.092532   1.768935   0.000000
     4  H    7.142883   7.916749   6.206157   0.000000
     5  H    1.093732   1.761058   1.803858   7.572834   0.000000
     6  H    1.093462   1.762467   1.799563   7.155660   1.804340
     7  C    6.278222   7.291606   5.627730   2.969533   6.364270
     8  C    5.328288   6.398015   4.868120   4.261669   5.229388
     9  C    3.867794   4.920879   3.365425   4.322546   3.904662
    10  N    5.819023   6.902903   5.591940   5.296946   5.685594
    11  O    3.756056   4.689455   2.983974   3.574554   4.072774
    12  O    3.176523   4.265257   3.047319   5.651958   2.978557
    13  C    6.323476   7.279405   5.684173   2.641553   6.634362
    14  H    7.294799   8.327247   6.682328   3.488477   7.309368
    15  H    6.268167   7.220389   5.480567   2.400679   6.373630
    16  H    5.624999   6.678459   5.171838   4.781805   5.343962
    17  H    6.188869   7.206477   5.872220   4.623801   6.363118
    18  H    5.296189   6.368250   5.250083   6.049643   5.078138
    19  H    2.197438   3.285472   2.191084   6.030282   2.080661
    20  N    6.341389   7.304801   5.890567   3.842168   6.664208
    21  O    6.809871   7.659919   6.047056   1.758168   7.272004
    22  H    6.752626   7.840192   6.538842   5.792899   6.534820
    23  H    6.675855   7.565298   6.255011   4.186696   7.122841
                    6          7          8          9         10
     6  H    0.000000
     7  C    6.173481   0.000000
     8  C    5.221370   1.539115   0.000000
     9  C    3.804292   2.477522   1.521354   0.000000
    10  N    5.473106   2.490045   1.475362   2.437797   0.000000
    11  O    3.778186   2.713305   2.421882   1.227938   3.463063
    12  O    3.053740   3.675826   2.369245   1.343831   2.723175
    13  C    6.029674   1.501385   2.510403   2.910818   2.976530
    14  H    7.170129   1.096474   2.174610   3.439769   2.743450
    15  H    6.332486   1.091969   2.160613   2.720492   3.423114
    16  H    5.689726   2.155888   1.098138   2.125307   2.149773
    17  H    5.661103   2.519443   2.441706   2.978788   1.790831
    18  H    4.892602   3.361625   2.081690   2.521535   1.019283
    19  H    2.129916   4.438671   3.267616   1.970601   3.659389
    20  N    5.839541   2.424215   2.862497   3.202261   2.678990
    21  O    6.561912   2.479133   3.676285   3.808636   4.290310
    22  H    6.432825   2.870528   2.098038   3.340478   1.017462
    23  H    6.070459   3.362914   3.838774   3.968584   3.577723
                   11         12         13         14         15
    11  O    0.000000
    12  O    2.286245   0.000000
    13  C    2.805572   4.080861   0.000000
    14  H    3.802225   4.512852   2.123434   0.000000
    15  H    2.621499   4.005259   2.130782   1.771124   0.000000
    16  H    3.026729   2.715358   3.444094   2.521757   2.433907
    17  H    3.495479   3.586095   1.988519   2.854401   3.533832
    18  H    3.656231   2.272415   3.754796   3.733008   4.195121
    19  H    2.471210   0.984055   4.687748   5.358426   4.644862
    20  N    3.341132   4.058317   1.297157   2.865865   3.290545
    21  O    3.286734   5.043936   1.321393   3.026220   2.612009
    22  H    4.362981   3.603113   3.526542   2.726407   3.819362
    23  H    3.932929   4.741938   2.016724   3.785954   4.128168
                   16         17         18         19         20
    16  H    0.000000
    17  H    3.467704   0.000000
    18  H    2.598926   2.375549   0.000000
    19  H    3.600926   4.303542   3.149942   0.000000
    20  N    3.923872   1.052876   3.310106   4.659557   0.000000
    21  O    4.517986   3.170662   5.029155   5.491796   2.236680
    22  H    2.421661   2.366391   1.672511   4.566362   3.262290
    23  H    4.915437   1.823621   4.081808   5.211632   1.015211
                   21         22         23
    21  O    0.000000
    22  H    4.836390   0.000000
    23  H    2.444890   4.156696   0.000000
 Stoichiometry    C5H13N2O3(1+)
 Framework group  C1[X(C5H13N2O3)]
 Deg. of freedom    63
 Full point group                 C1      NOp   1
 Largest Abelian subgroup         C1      NOp   1
 Largest concise Abelian subgroup C1      NOp   1
                         Standard orientation:                         
 ---------------------------------------------------------------------
 Center     Atomic      Atomic             Coordinates (Angstroms)
 Number     Number       Type             X           Y           Z
 ---------------------------------------------------------------------
      1          6           0       -4.367781   -0.941493    0.335355
      2          1           0       -5.270764   -1.544614    0.426737
      3          1           0       -3.648829   -1.490584   -0.277210
      4          1           0        2.335418   -2.579870   -1.509536
      5          1           0       -4.649582    0.003687   -0.137374
      6          1           0       -3.974942   -0.777536    1.342556
      7          6           0        1.655030    0.259531   -0.968240
      8          6           0        0.420712    1.144341   -0.718347
      9          6           0       -0.762443    0.233514   -0.426699
     10          7           0        0.627214    2.042010    0.434145
     11          8           0       -0.722367   -0.985549   -0.568512
     12          8           0       -1.823415    0.932392    0.011239
     13          6           0        1.946236   -0.617307    0.215192
     14          1           0        2.533220    0.885905   -1.164942
     15          1           0        1.479215   -0.362772   -1.848139
     16          1           0        0.192081    1.692628   -1.641936
     17          1           0        1.448959    0.838575    1.475084
     18          1           0       -0.256682    2.360712    0.829236
     19          1           0       -2.630710    0.395229    0.178853
     20          7           0        1.829380   -0.141406    1.416224
     21          8           0        2.375397   -1.861232    0.094557
     22          1           0        1.228681    2.835449    0.224574
     23          1           0        2.030342   -0.717445    2.227672
 ---------------------------------------------------------------------
 Rotational constants (GHZ):      1.7819468      0.7158078      0.6052071
 Leave Link  202 at Thu Mar 12 19:35:47 2020, MaxMem=    33554432 cpu:         0.0
 (Enter /usr/local/gaussian09d01/g09/l301.exe)
 Standard basis: 6-31G (6D, 7F)
 Ernie: Thresh=  0.10000D-02 Tol=  0.10000D-05 Strict=F.
 There are   116 symmetry adapted cartesian basis functions of A   symmetry.
 There are   116 symmetry adapted basis functions of A   symmetry.
   116 basis functions,   272 primitive gaussians,   116 cartesian basis functions
    40 alpha electrons       40 beta electrons
       nuclear repulsion energy       583.4375672928 Hartrees.
 IExCor= 4336 DFT=T Ex+Corr=M062X ExCW=0 ScaHFX=  0.540000
 ScaDFX=  1.000000  1.000000  1.000000  1.000000 ScalE2=  1.000000  1.000000
 IRadAn=      0 IRanWt=     -1 IRanGd=            0 ICorTp=0 IEmpDi=  4
 NAtoms=   23 NActive=   23 NUniq=   23 SFac= 1.00D+00 NAtFMM=   60 NAOKFM=F Big=F
 Integral buffers will be    131072 words long.
 Raffenetti 2 integral format.
 Two-electron integral symmetry is turned on.
 Leave Link  301 at Thu Mar 12 19:35:47 2020, MaxMem=    33554432 cpu:         0.0
 (Enter /usr/local/gaussian09d01/g09/l302.exe)
 NPDir=0 NMtPBC=     1 NCelOv=     1 NCel=       1 NClECP=     1 NCelD=      1
         NCelK=      1 NCelE2=     1 NClLst=     1 CellRange=     0.0.
 One-electron integrals computed using PRISM.
 NBasis=   116 RedAO= T EigKep=  3.57D-03  NBF=   116
 NBsUse=   116 1.00D-06 EigRej= -1.00D+00 NBFU=   116
 Precomputing XC quadrature grid using
 IXCGrd= 4 IRadAn=           0 IRanWt=          -1 IRanGd=           0 AccXCQ= 0.00D+00.
 Generated NRdTot=       0 NPtTot=           0 NUsed=           0 NTot=          32
 NSgBfM=   115   115   115   115   115 MxSgAt=    23 MxSgA2=    23.
 Leave Link  302 at Thu Mar 12 19:35:48 2020, MaxMem=    33554432 cpu:         0.3
 (Enter /usr/local/gaussian09d01/g09/l303.exe)
 DipDrv:  MaxL=1.
 Leave Link  303 at Thu Mar 12 19:35:48 2020, MaxMem=    33554432 cpu:         0.0
 (Enter /usr/local/gaussian09d01/g09/l401.exe)
 ExpMin= 1.61D-01 ExpMax= 5.48D+03 ExpMxC= 8.25D+02 IAcc=1 IRadAn=         1 AccDes= 0.00D+00
 Harris functional with IExCor= 1009 and IRadAn=       1 diagonalized for initial guess.
 HarFok:  IExCor= 1009 AccDes= 0.00D+00 IRadAn=         1 IDoV= 1 UseB2=F ITyADJ=14
 ICtDFT=  3500011 ScaDFX=  1.000000  1.000000  1.000000  1.000000
 FoFCou: FMM=F IPFlag=           0 FMFlag=      100000 FMFlg1=           0
         NFxFlg=           0 DoJE=T BraDBF=F KetDBF=T FulRan=T
         wScrn=  0.000000 ICntrl=     500 IOpCl=  0 I1Cent=   200000004 NGrid=           0
         NMat0=    1 NMatS0=      1 NMatT0=    0 NMatD0=    1 NMtDS0=    0 NMtDT0=    0
 Petite list used in FoFCou.
 Harris En= -532.641358287048    
 JPrj=0 DoOrth=F DoCkMO=F.
 Leave Link  401 at Thu Mar 12 19:35:49 2020, MaxMem=    33554432 cpu:         0.8
 (Enter /usr/local/gaussian09d01/g09/l502.exe)
 Closed shell SCF:
 Using DIIS extrapolation, IDIIS=  1040.
 Integral symmetry usage will be decided dynamically.
 Keep R1 ints in memory in canonical form, NReq=24030401.
 IVT=       60528 IEndB=       60528 NGot=    33554432 MDV=    10465614
 LenX=    10465614 LenY=    10451717
 Requested convergence on RMS density matrix=1.00D-08 within 128 cycles.
 Requested convergence on MAX density matrix=1.00D-06.
 Requested convergence on             energy=1.00D-06.
 No special actions if energy rises.
 FoFCou: FMM=F IPFlag=           0 FMFlag=           0 FMFlg1=           0
         NFxFlg=           0 DoJE=F BraDBF=F KetDBF=F FulRan=T
         wScrn=  0.000000 ICntrl=     600 IOpCl=  0 I1Cent=           0 NGrid=           0
         NMat0=    1 NMatS0=   6786 NMatT0=    0 NMatD0=    1 NMtDS0=    0 NMtDT0=    0
 Symmetry not used in FoFCou.
 Integral accuracy reduced to 1.0D-05 until final iterations.

 Cycle   1  Pass 0  IDiag  1:
 E= -532.482285079022    
 DIIS: error= 4.97D-02 at cycle   1 NSaved=   1.
 NSaved= 1 IEnMin= 1 EnMin= -532.482285079022     IErMin= 1 ErrMin= 4.97D-02
 ErrMax= 4.97D-02  0.00D+00 EMaxC= 1.00D-01 BMatC= 3.33D-01 BMatP= 3.33D-01
 IDIUse=3 WtCom= 5.03D-01 WtEn= 4.97D-01
 Coeff-Com:  0.100D+01
 Coeff-En:   0.100D+01
 Coeff:      0.100D+01
 Gap=     0.069 Goal=   None    Shift=    0.000
 GapD=    0.069 DampG=0.500 DampE=0.500 DampFc=0.2500 IDamp=-1.
 Damping current iteration by 2.50D-01
 RMSDP=9.07D-03 MaxDP=1.95D-01              OVMax= 3.03D-01

 Cycle   2  Pass 0  IDiag  1:
 E= -532.589699757356     Delta-E=       -0.107414678334 Rises=F Damp=T
 DIIS: error= 2.71D-02 at cycle   2 NSaved=   2.
 NSaved= 2 IEnMin= 2 EnMin= -532.589699757356     IErMin= 2 ErrMin= 2.71D-02
 ErrMax= 2.71D-02  0.00D+00 EMaxC= 1.00D-01 BMatC= 8.64D-02 BMatP= 3.33D-01
 IDIUse=3 WtCom= 7.29D-01 WtEn= 2.71D-01
 Coeff-Com: -0.805D+00 0.180D+01
 Coeff-En:   0.000D+00 0.100D+01
 Coeff:     -0.587D+00 0.159D+01
 Gap=     0.161 Goal=   None    Shift=    0.000
 RMSDP=3.14D-03 MaxDP=6.07D-02 DE=-1.07D-01 OVMax= 1.38D-01

 Cycle   3  Pass 0  IDiag  1:
 E= -532.765963743444     Delta-E=       -0.176263986088 Rises=F Damp=F
 DIIS: error= 1.22D-02 at cycle   3 NSaved=   3.
 NSaved= 3 IEnMin= 3 EnMin= -532.765963743444     IErMin= 3 ErrMin= 1.22D-02
 ErrMax= 1.22D-02  0.00D+00 EMaxC= 1.00D-01 BMatC= 1.97D-02 BMatP= 8.64D-02
 IDIUse=3 WtCom= 8.78D-01 WtEn= 1.22D-01
 Coeff-Com: -0.317D+00 0.772D+00 0.544D+00
 Coeff-En:   0.000D+00 0.000D+00 0.100D+01
 Coeff:     -0.278D+00 0.678D+00 0.600D+00
 Gap=     0.199 Goal=   None    Shift=    0.000
 RMSDP=1.35D-03 MaxDP=3.37D-02 DE=-1.76D-01 OVMax= 4.45D-02

 Cycle   4  Pass 0  IDiag  1:
 E= -532.780144550175     Delta-E=       -0.014180806731 Rises=F Damp=F
 DIIS: error= 6.87D-03 at cycle   4 NSaved=   4.
 NSaved= 4 IEnMin= 4 EnMin= -532.780144550175     IErMin= 4 ErrMin= 6.87D-03
 ErrMax= 6.87D-03  0.00D+00 EMaxC= 1.00D-01 BMatC= 4.50D-03 BMatP= 1.97D-02
 IDIUse=3 WtCom= 9.31D-01 WtEn= 6.87D-02
 Coeff-Com:  0.333D-01-0.148D-01 0.323D+00 0.658D+00
 Coeff-En:   0.000D+00 0.000D+00 0.152D+00 0.848D+00
 Coeff:      0.310D-01-0.138D-01 0.312D+00 0.671D+00
 Gap=     0.191 Goal=   None    Shift=    0.000
 RMSDP=5.09D-04 MaxDP=1.40D-02 DE=-1.42D-02 OVMax= 1.90D-02

 Cycle   5  Pass 0  IDiag  1:
 E= -532.783502226191     Delta-E=       -0.003357676016 Rises=F Damp=F
 DIIS: error= 1.51D-03 at cycle   5 NSaved=   5.
 NSaved= 5 IEnMin= 5 EnMin= -532.783502226191     IErMin= 5 ErrMin= 1.51D-03
 ErrMax= 1.51D-03  0.00D+00 EMaxC= 1.00D-01 BMatC= 4.03D-04 BMatP= 4.50D-03
 IDIUse=3 WtCom= 9.85D-01 WtEn= 1.51D-02
 Coeff-Com:  0.438D-01-0.653D-01 0.144D+00 0.382D+00 0.496D+00
 Coeff-En:   0.000D+00 0.000D+00 0.000D+00 0.000D+00 0.100D+01
 Coeff:      0.432D-01-0.643D-01 0.141D+00 0.376D+00 0.503D+00
 Gap=     0.193 Goal=   None    Shift=    0.000
 RMSDP=1.69D-04 MaxDP=3.97D-03 DE=-3.36D-03 OVMax= 5.16D-03

 Cycle   6  Pass 0  IDiag  1:
 E= -532.783832537712     Delta-E=       -0.000330311520 Rises=F Damp=F
 DIIS: error= 4.56D-04 at cycle   6 NSaved=   6.
 NSaved= 6 IEnMin= 6 EnMin= -532.783832537712     IErMin= 6 ErrMin= 4.56D-04
 ErrMax= 4.56D-04  0.00D+00 EMaxC= 1.00D-01 BMatC= 2.16D-05 BMatP= 4.03D-04
 IDIUse=3 WtCom= 9.95D-01 WtEn= 4.56D-03
 Coeff-Com:  0.217D-01-0.335D-01 0.514D-01 0.132D+00 0.231D+00 0.597D+00
 Coeff-En:   0.000D+00 0.000D+00 0.000D+00 0.000D+00 0.000D+00 0.100D+01
 Coeff:      0.216D-01-0.334D-01 0.511D-01 0.131D+00 0.230D+00 0.599D+00
 Gap=     0.194 Goal=   None    Shift=    0.000
 RMSDP=4.53D-05 MaxDP=1.07D-03 DE=-3.30D-04 OVMax= 1.65D-03

 Cycle   7  Pass 0  IDiag  1:
 E= -532.783850904256     Delta-E=       -0.000018366545 Rises=F Damp=F
 DIIS: error= 3.12D-04 at cycle   7 NSaved=   7.
 NSaved= 7 IEnMin= 7 EnMin= -532.783850904256     IErMin= 7 ErrMin= 3.12D-04
 ErrMax= 3.12D-04  0.00D+00 EMaxC= 1.00D-01 BMatC= 4.60D-06 BMatP= 2.16D-05
 IDIUse=3 WtCom= 9.97D-01 WtEn= 3.12D-03
 Coeff-Com:  0.104D-02-0.176D-02-0.106D-01-0.397D-01-0.286D-01 0.316D+00
 Coeff-Com:  0.763D+00
 Coeff-En:   0.000D+00 0.000D+00 0.000D+00 0.000D+00 0.000D+00 0.000D+00
 Coeff-En:   0.100D+01
 Coeff:      0.104D-02-0.175D-02-0.105D-01-0.396D-01-0.285D-01 0.315D+00
 Coeff:      0.764D+00
 Gap=     0.194 Goal=   None    Shift=    0.000
 RMSDP=2.92D-05 MaxDP=3.99D-04 DE=-1.84D-05 OVMax= 7.65D-04

 Cycle   8  Pass 0  IDiag  1:
 E= -532.783855578985     Delta-E=       -0.000004674729 Rises=F Damp=F
 DIIS: error= 2.90D-05 at cycle   8 NSaved=   8.
 NSaved= 8 IEnMin= 8 EnMin= -532.783855578985     IErMin= 8 ErrMin= 2.90D-05
 ErrMax= 2.90D-05  0.00D+00 EMaxC= 1.00D-01 BMatC= 1.97D-07 BMatP= 4.60D-06
 IDIUse=1 WtCom= 1.00D+00 WtEn= 0.00D+00
 Coeff-Com: -0.161D-02 0.239D-02-0.842D-02-0.256D-01-0.350D-01 0.585D-01
 Coeff-Com:  0.241D+00 0.769D+00
 Coeff:     -0.161D-02 0.239D-02-0.842D-02-0.256D-01-0.350D-01 0.585D-01
 Coeff:      0.241D+00 0.769D+00
 Gap=     0.194 Goal=   None    Shift=    0.000
 RMSDP=7.70D-06 MaxDP=1.07D-04 DE=-4.67D-06 OVMax= 2.58D-04

 Initial convergence to 1.0D-05 achieved.  Increase integral accuracy.
 Cycle   9  Pass 1  IDiag  1:
 E= -532.784102841096     Delta-E=       -0.000247262111 Rises=F Damp=F
 DIIS: error= 1.07D-04 at cycle   1 NSaved=   1.
 NSaved= 1 IEnMin= 1 EnMin= -532.784102841096     IErMin= 1 ErrMin= 1.07D-04
 ErrMax= 1.07D-04  0.00D+00 EMaxC= 1.00D-01 BMatC= 1.79D-06 BMatP= 1.79D-06
 IDIUse=3 WtCom= 9.99D-01 WtEn= 1.07D-03
 Coeff-Com:  0.100D+01
 Coeff-En:   0.100D+01
 Coeff:      0.100D+01
 Gap=     0.194 Goal=   None    Shift=    0.000
 RMSDP=7.70D-06 MaxDP=1.07D-04 DE=-2.47D-04 OVMax= 2.25D-04

 Cycle  10  Pass 1  IDiag  1:
 E= -532.784104479762     Delta-E=       -0.000001638665 Rises=F Damp=F
 DIIS: error= 6.14D-05 at cycle   2 NSaved=   2.
 NSaved= 2 IEnMin= 2 EnMin= -532.784104479762     IErMin= 2 ErrMin= 6.14D-05
 ErrMax= 6.14D-05  0.00D+00 EMaxC= 1.00D-01 BMatC= 4.47D-07 BMatP= 1.79D-06
 IDIUse=1 WtCom= 1.00D+00 WtEn= 0.00D+00
 Coeff-Com:  0.264D+00 0.736D+00
 Coeff:      0.264D+00 0.736D+00
 Gap=     0.194 Goal=   None    Shift=    0.000
 RMSDP=8.46D-06 MaxDP=1.44D-04 DE=-1.64D-06 OVMax= 1.63D-04

 Cycle  11  Pass 1  IDiag  1:
 E= -532.784104735020     Delta-E=       -0.000000255258 Rises=F Damp=F
 DIIS: error= 4.33D-05 at cycle   3 NSaved=   3.
 NSaved= 3 IEnMin= 3 EnMin= -532.784104735020     IErMin= 3 ErrMin= 4.33D-05
 ErrMax= 4.33D-05  0.00D+00 EMaxC= 1.00D-01 BMatC= 2.31D-07 BMatP= 4.47D-07
 IDIUse=1 WtCom= 1.00D+00 WtEn= 0.00D+00
 Coeff-Com: -0.103D-01 0.411D+00 0.600D+00
 Coeff:     -0.103D-01 0.411D+00 0.600D+00
 Gap=     0.194 Goal=   None    Shift=    0.000
 RMSDP=4.41D-06 MaxDP=1.40D-04 DE=-2.55D-07 OVMax= 1.95D-04

 Cycle  12  Pass 1  IDiag  1:
 E= -532.784104897049     Delta-E=       -0.000000162028 Rises=F Damp=F
 DIIS: error= 2.22D-05 at cycle   4 NSaved=   4.
 NSaved= 4 IEnMin= 4 EnMin= -532.784104897049     IErMin= 4 ErrMin= 2.22D-05
 ErrMax= 2.22D-05  0.00D+00 EMaxC= 1.00D-01 BMatC= 4.10D-08 BMatP= 2.31D-07
 IDIUse=1 WtCom= 1.00D+00 WtEn= 0.00D+00
 Coeff-Com: -0.368D-01 0.181D+00 0.378D+00 0.478D+00
 Coeff:     -0.368D-01 0.181D+00 0.378D+00 0.478D+00
 Gap=     0.194 Goal=   None    Shift=    0.000
 RMSDP=1.42D-06 MaxDP=4.96D-05 DE=-1.62D-07 OVMax= 6.93D-05

 Cycle  13  Pass 1  IDiag  1:
 E= -532.784104933554     Delta-E=       -0.000000036506 Rises=F Damp=F
 DIIS: error= 2.36D-06 at cycle   5 NSaved=   5.
 NSaved= 5 IEnMin= 5 EnMin= -532.784104933554     IErMin= 5 ErrMin= 2.36D-06
 ErrMax= 2.36D-06  0.00D+00 EMaxC= 1.00D-01 BMatC= 5.52D-10 BMatP= 4.10D-08
 IDIUse=1 WtCom= 1.00D+00 WtEn= 0.00D+00
 Coeff-Com: -0.766D-02 0.124D-01 0.409D-01 0.108D+00 0.846D+00
 Coeff:     -0.766D-02 0.124D-01 0.409D-01 0.108D+00 0.846D+00
 Gap=     0.194 Goal=   None    Shift=    0.000
 RMSDP=3.77D-07 MaxDP=8.08D-06 DE=-3.65D-08 OVMax= 1.48D-05

 Cycle  14  Pass 1  IDiag  1:
 E= -532.784104934412     Delta-E=       -0.000000000858 Rises=F Damp=F
 DIIS: error= 1.00D-06 at cycle   6 NSaved=   6.
 NSaved= 6 IEnMin= 6 EnMin= -532.784104934412     IErMin= 6 ErrMin= 1.00D-06
 ErrMax= 1.00D-06  0.00D+00 EMaxC= 1.00D-01 BMatC= 2.27D-10 BMatP= 5.52D-10
 IDIUse=1 WtCom= 1.00D+00 WtEn= 0.00D+00
 Coeff-Com:  0.296D-02-0.253D-01-0.460D-01-0.315D-01 0.432D+00 0.667D+00
 Coeff:      0.296D-02-0.253D-01-0.460D-01-0.315D-01 0.432D+00 0.667D+00
 Gap=     0.194 Goal=   None    Shift=    0.000
 RMSDP=1.88D-07 MaxDP=2.77D-06 DE=-8.58D-10 OVMax= 7.98D-06

 Cycle  15  Pass 1  IDiag  1:
 E= -532.784104934740     Delta-E=       -0.000000000328 Rises=F Damp=F
 DIIS: error= 6.47D-07 at cycle   7 NSaved=   7.
 NSaved= 7 IEnMin= 7 EnMin= -532.784104934740     IErMin= 7 ErrMin= 6.47D-07
 ErrMax= 6.47D-07  0.00D+00 EMaxC= 1.00D-01 BMatC= 9.13D-12 BMatP= 2.27D-10
 IDIUse=1 WtCom= 1.00D+00 WtEn= 0.00D+00
 Coeff-Com:  0.788D-03-0.167D-02-0.438D-02-0.151D-01-0.857D-01-0.410D-02
 Coeff-Com:  0.111D+01
 Coeff:      0.788D-03-0.167D-02-0.438D-02-0.151D-01-0.857D-01-0.410D-02
 Coeff:      0.111D+01
 Gap=     0.194 Goal=   None    Shift=    0.000
 RMSDP=1.06D-07 MaxDP=2.31D-06 DE=-3.28D-10 OVMax= 6.29D-06

 Cycle  16  Pass 1  IDiag  1:
 E= -532.784104934802     Delta-E=       -0.000000000062 Rises=F Damp=F
 DIIS: error= 2.99D-07 at cycle   8 NSaved=   8.
 NSaved= 8 IEnMin= 8 EnMin= -532.784104934802     IErMin= 8 ErrMin= 2.99D-07
 ErrMax= 2.99D-07  0.00D+00 EMaxC= 1.00D-01 BMatC= 3.71D-12 BMatP= 9.13D-12
 IDIUse=1 WtCom= 1.00D+00 WtEn= 0.00D+00
 Coeff-Com: -0.867D-04 0.290D-02 0.489D-02-0.226D-02-0.101D+00-0.958D-01
 Coeff-Com:  0.503D+00 0.687D+00
 Coeff:     -0.867D-04 0.290D-02 0.489D-02-0.226D-02-0.101D+00-0.958D-01
 Coeff:      0.503D+00 0.687D+00
 Gap=     0.194 Goal=   None    Shift=    0.000
 RMSDP=3.91D-08 MaxDP=9.22D-07 DE=-6.21D-11 OVMax= 2.42D-06

 Cycle  17  Pass 1  IDiag  1:
 E= -532.784104934815     Delta-E=       -0.000000000013 Rises=F Damp=F
 DIIS: error= 1.67D-07 at cycle   9 NSaved=   9.
 NSaved= 9 IEnMin= 9 EnMin= -532.784104934815     IErMin= 9 ErrMin= 1.67D-07
 ErrMax= 1.67D-07  0.00D+00 EMaxC= 1.00D-01 BMatC= 9.12D-13 BMatP= 3.71D-12
 IDIUse=1 WtCom= 1.00D+00 WtEn= 0.00D+00
 Coeff-Com: -0.194D-03 0.138D-02 0.281D-02 0.278D-02-0.152D-01-0.344D-01
 Coeff-Com: -0.104D+00 0.318D+00 0.829D+00
 Coeff:     -0.194D-03 0.138D-02 0.281D-02 0.278D-02-0.152D-01-0.344D-01
 Coeff:     -0.104D+00 0.318D+00 0.829D+00
 Gap=     0.194 Goal=   None    Shift=    0.000
 RMSDP=2.52D-08 MaxDP=6.56D-07 DE=-1.32D-11 OVMax= 1.64D-06

 Cycle  18  Pass 1  IDiag  1:
 E= -532.784104934813     Delta-E=        0.000000000003 Rises=F Damp=F
 DIIS: error= 7.03D-08 at cycle  10 NSaved=  10.
 NSaved=10 IEnMin= 9 EnMin= -532.784104934815     IErMin=10 ErrMin= 7.03D-08
 ErrMax= 7.03D-08  0.00D+00 EMaxC= 1.00D-01 BMatC= 2.48D-13 BMatP= 9.12D-13
 IDIUse=1 WtCom= 1.00D+00 WtEn= 0.00D+00
 Coeff-Com: -0.129D-03 0.421D-03 0.104D-02 0.215D-02 0.747D-02-0.522D-02
 Coeff-Com: -0.148D+00 0.367D-01 0.439D+00 0.666D+00
 Coeff:     -0.129D-03 0.421D-03 0.104D-02 0.215D-02 0.747D-02-0.522D-02
 Coeff:     -0.148D+00 0.367D-01 0.439D+00 0.666D+00
 Gap=     0.194 Goal=   None    Shift=    0.000
 RMSDP=1.05D-08 MaxDP=3.02D-07 DE= 2.96D-12 OVMax= 7.28D-07

 Cycle  19  Pass 1  IDiag  1:
 E= -532.784104934814     Delta-E=       -0.000000000002 Rises=F Damp=F
 DIIS: error= 2.86D-08 at cycle  11 NSaved=  11.
 NSaved=11 IEnMin= 9 EnMin= -532.784104934815     IErMin=11 ErrMin= 2.86D-08
 ErrMax= 2.86D-08  0.00D+00 EMaxC= 1.00D-01 BMatC= 2.86D-14 BMatP= 2.48D-13
 IDIUse=1 WtCom= 1.00D+00 WtEn= 0.00D+00
 Coeff-Com:  0.200D-04-0.271D-03-0.496D-03-0.186D-03 0.675D-02 0.815D-02
 Coeff-Com: -0.152D-01-0.731D-01-0.908D-01 0.198D+00 0.967D+00
 Coeff:      0.200D-04-0.271D-03-0.496D-03-0.186D-03 0.675D-02 0.815D-02
 Coeff:     -0.152D-01-0.731D-01-0.908D-01 0.198D+00 0.967D+00
 Gap=     0.194 Goal=   None    Shift=    0.000
 RMSDP=5.31D-09 MaxDP=1.66D-07 DE=-1.82D-12 OVMax= 3.70D-07

 SCF Done:  E(RM062X) =  -532.784104935     A.U. after   19 cycles
            NFock= 19  Conv=0.53D-08     -V/T= 2.0061
 KE= 5.295406847113D+02 PE=-2.399323766483D+03 EE= 7.535614095444D+02
 Leave Link  502 at Thu Mar 12 19:36:53 2020, MaxMem=    33554432 cpu:        64.4
 (Enter /usr/local/gaussian09d01/g09/l601.exe)
 Copying SCF densities to generalized density rwf, IOpCl= 0 IROHF=0.

 **********************************************************************

            Population analysis using the SCF density.

 **********************************************************************

 Orbital symmetries:
       Occupied  (A) (A) (A) (A) (A) (A) (A) (A) (A) (A) (A) (A)
                 (A) (A) (A) (A) (A) (A) (A) (A) (A) (A) (A) (A)
                 (A) (A) (A) (A) (A) (A) (A) (A) (A) (A) (A) (A)
                 (A) (A) (A) (A)
       Virtual   (A) (A) (A) (A) (A) (A) (A) (A) (A) (A) (A) (A)
                 (A) (A) (A) (A) (A) (A) (A) (A) (A) (A) (A) (A)
                 (A) (A) (A) (A) (A) (A) (A) (A) (A) (A) (A) (A)
                 (A) (A) (A) (A) (A) (A) (A) (A) (A) (A) (A) (A)
                 (A) (A) (A) (A) (A) (A) (A) (A) (A) (A) (A) (A)
                 (A) (A) (A) (A) (A) (A) (A) (A) (A) (A) (A) (A)
                 (A) (A) (A) (A)
 The electronic state is 1-A.
 Alpha  occ. eigenvalues --  -19.88884 -19.83648 -19.80054 -14.97415 -14.92435
 Alpha  occ. eigenvalues --  -10.87603 -10.85706 -10.77336 -10.74703 -10.62926
 Alpha  occ. eigenvalues --   -1.39857  -1.37638  -1.30788  -1.22880  -1.17740
 Alpha  occ. eigenvalues --   -1.05487  -0.95988  -0.89920  -0.87722  -0.84415
 Alpha  occ. eigenvalues --   -0.81848  -0.77889  -0.73865  -0.73196  -0.72683
 Alpha  occ. eigenvalues --   -0.71277  -0.69030  -0.67897  -0.65448  -0.63553
 Alpha  occ. eigenvalues --   -0.62888  -0.60232  -0.57490  -0.56929  -0.56720
 Alpha  occ. eigenvalues --   -0.55764  -0.54407  -0.53555  -0.51090  -0.48712
 Alpha virt. eigenvalues --   -0.29303  -0.14476  -0.11775  -0.03140  -0.00620
 Alpha virt. eigenvalues --   -0.00104   0.01491   0.02343   0.04336   0.05613
 Alpha virt. eigenvalues --    0.07267   0.07802   0.08415   0.10135   0.11262
 Alpha virt. eigenvalues --    0.11427   0.12717   0.13617   0.16153   0.18843
 Alpha virt. eigenvalues --    0.20389   0.25271   0.28853   0.39498   0.42376
 Alpha virt. eigenvalues --    0.44366   0.46734   0.47374   0.48395   0.48808
 Alpha virt. eigenvalues --    0.50362   0.52486   0.52606   0.54997   0.58904
 Alpha virt. eigenvalues --    0.59169   0.60745   0.61716   0.64329   0.65080
 Alpha virt. eigenvalues --    0.68061   0.70486   0.71844   0.75690   0.77889
 Alpha virt. eigenvalues --    0.78717   0.79876   0.81837   0.83738   0.84675
 Alpha virt. eigenvalues --    0.86967   0.87613   0.88321   0.88605   0.89545
 Alpha virt. eigenvalues --    0.92341   0.92826   0.94824   0.95569   0.97286
 Alpha virt. eigenvalues --    1.02906   1.03626   1.04788   1.09766   1.11712
 Alpha virt. eigenvalues --    1.13878   1.19658   1.23832   1.30697   1.33362
 Alpha virt. eigenvalues --    1.41967   1.51985   1.64262   1.74704   1.76804
 Alpha virt. eigenvalues --    1.85777
          Condensed to atoms (all electrons):
               1          2          3          4          5          6
     1  C    5.188907   0.375362   0.371614   0.000000   0.370271   0.371141
     2  H    0.375362   0.470536  -0.018049   0.000000  -0.019921  -0.020296
     3  H    0.371614  -0.018049   0.521605   0.000000  -0.029567  -0.030030
     4  H    0.000000   0.000000   0.000000   0.413460   0.000000   0.000000
     5  H    0.370271  -0.019921  -0.029567   0.000000   0.538358  -0.032133
     6  H    0.371141  -0.020296  -0.030030   0.000000  -0.032133   0.544011
     7  C    0.000000   0.000000  -0.000001  -0.011609   0.000000   0.000000
     8  C   -0.000005   0.000001   0.000084   0.000436  -0.000011  -0.000007
     9  C    0.000249   0.000038   0.001501   0.000006  -0.000151  -0.000130
    10  N    0.000000   0.000000  -0.000001   0.000006   0.000000   0.000000
    11  O   -0.001330   0.000015   0.003344   0.000135   0.000043   0.000016
    12  O   -0.005194   0.000175  -0.001634   0.000000  -0.000757  -0.000628
    13  C    0.000000   0.000000   0.000000   0.005870   0.000000   0.000000
    14  H    0.000000   0.000000   0.000000   0.000305   0.000000   0.000000
    15  H    0.000000   0.000000   0.000000   0.006996   0.000000   0.000000
    16  H    0.000001   0.000000  -0.000002  -0.000004   0.000000   0.000000
    17  H    0.000000   0.000000   0.000000  -0.000023   0.000000   0.000000
    18  H   -0.000001   0.000000   0.000000   0.000000   0.000000   0.000000
    19  H    0.026707  -0.000927   0.002072   0.000000   0.005133   0.004661
    20  N    0.000000   0.000000   0.000000   0.002648   0.000000   0.000000
    21  O    0.000000   0.000000   0.000000   0.143227   0.000000   0.000000
    22  H    0.000000   0.000000   0.000000   0.000000   0.000000   0.000000
    23  H    0.000000   0.000000   0.000000  -0.000038   0.000000   0.000000
               7          8          9         10         11         12
     1  C    0.000000  -0.000005   0.000249   0.000000  -0.001330  -0.005194
     2  H    0.000000   0.000001   0.000038   0.000000   0.000015   0.000175
     3  H   -0.000001   0.000084   0.001501  -0.000001   0.003344  -0.001634
     4  H   -0.011609   0.000436   0.000006   0.000006   0.000135   0.000000
     5  H    0.000000  -0.000011  -0.000151   0.000000   0.000043  -0.000757
     6  H    0.000000  -0.000007  -0.000130   0.000000   0.000016  -0.000628
     7  C    5.414059   0.214738  -0.047891  -0.070832   0.008175   0.005358
     8  C    0.214738   5.574288   0.152252   0.192844  -0.124339  -0.148360
     9  C   -0.047891   0.152252   4.755767  -0.049616   0.497180   0.193115
    10  N   -0.070832   0.192844  -0.049616   7.093713   0.002189   0.001806
    11  O    0.008175  -0.124339   0.497180   0.002189   8.123158  -0.108734
    12  O    0.005358  -0.148360   0.193115   0.001806  -0.108734   8.421021
    13  C    0.255292  -0.017951  -0.008043  -0.006789   0.010320  -0.000554
    14  H    0.376246  -0.028023   0.005671  -0.001523   0.000408  -0.000028
    15  H    0.366862  -0.027779  -0.002296   0.003965   0.004718   0.000130
    16  H   -0.043667   0.385294  -0.027468  -0.036261   0.001112   0.000953
    17  H   -0.009644  -0.011474  -0.000540   0.093476   0.000206  -0.000074
    18  H    0.004818  -0.034216  -0.007519   0.320697   0.000223   0.013176
    19  H   -0.000158   0.005486  -0.018665  -0.000119  -0.000583   0.237009
    20  N   -0.094016   0.006397   0.000563  -0.075885  -0.003351   0.000060
    21  O   -0.056958   0.002499  -0.000620  -0.000153  -0.001609  -0.000001
    22  H   -0.000970  -0.029173   0.004164   0.322147  -0.000080  -0.000004
    23  H    0.004045  -0.000243  -0.000101   0.001524   0.000028   0.000003
              13         14         15         16         17         18
     1  C    0.000000   0.000000   0.000000   0.000001   0.000000  -0.000001
     2  H    0.000000   0.000000   0.000000   0.000000   0.000000   0.000000
     3  H    0.000000   0.000000   0.000000  -0.000002   0.000000   0.000000
     4  H    0.005870   0.000305   0.006996  -0.000004  -0.000023   0.000000
     5  H    0.000000   0.000000   0.000000   0.000000   0.000000   0.000000
     6  H    0.000000   0.000000   0.000000   0.000000   0.000000   0.000000
     7  C    0.255292   0.376246   0.366862  -0.043667  -0.009644   0.004818
     8  C   -0.017951  -0.028023  -0.027779   0.385294  -0.011474  -0.034216
     9  C   -0.008043   0.005671  -0.002296  -0.027468  -0.000540  -0.007519
    10  N   -0.006789  -0.001523   0.003965  -0.036261   0.093476   0.320697
    11  O    0.010320   0.000408   0.004718   0.001112   0.000206   0.000223
    12  O   -0.000554  -0.000028   0.000130   0.000953  -0.000074   0.013176
    13  C    4.628634  -0.034955  -0.034150   0.004070  -0.014600   0.000161
    14  H   -0.034955   0.449086  -0.017289  -0.003280  -0.000266  -0.000053
    15  H   -0.034150  -0.017289   0.490393  -0.000671   0.000379  -0.000109
    16  H    0.004070  -0.003280  -0.000671   0.466996   0.000980   0.000979
    17  H   -0.014600  -0.000266   0.000379   0.000980   0.257171  -0.000511
    18  H    0.000161  -0.000053  -0.000109   0.000979  -0.000511   0.339314
    19  H   -0.000009   0.000002  -0.000002  -0.000253  -0.000020  -0.000265
    20  N    0.316025  -0.001434   0.004525  -0.000310   0.233098   0.000337
    21  O    0.321858   0.000997  -0.002921  -0.000067   0.001440   0.000002
    22  H   -0.000209   0.001636  -0.000077  -0.003861  -0.001526  -0.021021
    23  H   -0.021208  -0.000136  -0.000071   0.000011  -0.002799  -0.000013
              19         20         21         22         23
     1  C    0.026707   0.000000   0.000000   0.000000   0.000000
     2  H   -0.000927   0.000000   0.000000   0.000000   0.000000
     3  H    0.002072   0.000000   0.000000   0.000000   0.000000
     4  H    0.000000   0.002648   0.143227   0.000000  -0.000038
     5  H    0.005133   0.000000   0.000000   0.000000   0.000000
     6  H    0.004661   0.000000   0.000000   0.000000   0.000000
     7  C   -0.000158  -0.094016  -0.056958  -0.000970   0.004045
     8  C    0.005486   0.006397   0.002499  -0.029173  -0.000243
     9  C   -0.018665   0.000563  -0.000620   0.004164  -0.000101
    10  N   -0.000119  -0.075885  -0.000153   0.322147   0.001524
    11  O   -0.000583  -0.003351  -0.001609  -0.000080   0.000028
    12  O    0.237009   0.000060  -0.000001  -0.000004   0.000003
    13  C   -0.000009   0.316025   0.321858  -0.000209  -0.021208
    14  H    0.000002  -0.001434   0.000997   0.001636  -0.000136
    15  H   -0.000002   0.004525  -0.002921  -0.000077  -0.000071
    16  H   -0.000253  -0.000310  -0.000067  -0.003861   0.000011
    17  H   -0.000020   0.233098   0.001440  -0.001526  -0.002799
    18  H   -0.000265   0.000337   0.000002  -0.021021  -0.000013
    19  H    0.276178   0.000010   0.000000   0.000017  -0.000001
    20  N    0.000010   7.120917  -0.116954   0.000943   0.307570
    21  O    0.000000  -0.116954   8.173853   0.000002  -0.000768
    22  H    0.000017   0.000943   0.000002   0.371522  -0.000022
    23  H   -0.000001   0.307570  -0.000768  -0.000022   0.299733
 Mulliken charges:
               1
     1  C   -0.697723
     2  H    0.213066
     3  H    0.179064
     4  H    0.438586
     5  H    0.168733
     6  H    0.163393
     7  C   -0.313848
     8  C   -0.112738
     9  C    0.552536
    10  N   -0.791187
    11  O   -0.411244
    12  O   -0.606838
    13  C    0.596238
    14  H    0.252634
    15  H    0.207397
    16  H    0.255450
    17  H    0.454727
    18  H    0.384001
    19  H    0.463726
    20  N   -0.701143
    21  O   -0.463825
    22  H    0.356512
    23  H    0.412484
 Sum of Mulliken charges =   1.00000
 Mulliken charges with hydrogens summed into heavy atoms:
               1
     1  C    0.026533
     7  C    0.146183
     8  C    0.142712
     9  C    0.552536
    10  N   -0.050674
    11  O   -0.411244
    12  O   -0.143112
    13  C    0.596238
    20  N    0.166067
    21  O   -0.025240
 Electronic spatial extent (au):  <R**2>=           2001.6100
 Charge=              1.0000 electrons
 Dipole moment (field-independent basis, Debye):
    X=              4.9008    Y=              0.9800    Z=             -1.4281  Tot=              5.1979
 Quadrupole moment (field-independent basis, Debye-Ang):
   XX=            -33.7184   YY=            -44.9484   ZZ=            -45.2229
   XY=             -3.2850   XZ=             -6.3281   YZ=              5.1254
 Traceless Quadrupole moment (field-independent basis, Debye-Ang):
   XX=              7.5782   YY=             -3.6518   ZZ=             -3.9263
   XY=             -3.2850   XZ=             -6.3281   YZ=              5.1254
 Octapole moment (field-independent basis, Debye-Ang**2):
  XXX=            -22.0926  YYY=              4.7718  ZZZ=              6.7310  XYY=             31.8406
  XXY=            -21.9184  XXZ=             -6.8958  XZZ=             29.9698  YZZ=            -14.9233
  YYZ=            -18.0827  XYZ=             15.7646
 Hexadecapole moment (field-independent basis, Debye-Ang**3):
 XXXX=          -1448.2600 YYYY=           -400.3371 ZZZZ=           -193.8810 XXXY=             16.8155
 XXXZ=            -45.1787 YYYX=            -43.0327 YYYZ=             72.2918 ZZZX=             15.8342
 ZZZY=             11.4329 XXYY=           -314.8900 XXZZ=           -275.5833 YYZZ=            -87.6034
 XXYZ=             30.9636 YYXZ=            -54.3545 ZZXY=            -50.4146
 N-N= 5.834375672928D+02 E-N=-2.399323766693D+03  KE= 5.295406847113D+02
 No NMR shielding tensors so no spin-rotation constants.
 Leave Link  601 at Thu Mar 12 19:36:53 2020, MaxMem=    33554432 cpu:         0.1
 (Enter /usr/local/gaussian09d01/g09/l9999.exe)
 1\1\GINC-KARURA\SP\RM062X\6-31G\C5H13N2O3(1+)\RTAKE\12-Mar-2020\0\\#p 
 M062X/6-31G\\chk calc\\1,1\C,0,3.824482709,-1.14219544,1.17225369\H,0,
 4.799113079,-1.62961423,1.173808707\H,0,3.053614027,-1.916312598,1.160
 804944\H,0,-2.703265182,-3.463646003,-0.565603906\H,0,3.75960642,-0.53
 291794,2.07824618\H,0,3.765323683,-0.52154146,0.273951194\C,0,-2.40154
 2122,-0.705499021,0.492562549\C,0,-1.33365594,0.193207044,1.141270536\
 C,0,0.021967089,-0.47033751,0.950186539\N,0,-1.303304814,1.529148773,0
 .515945207\O,0,0.155929117,-1.611462803,0.51692019\O,0,1.024922388,0.3
 53392554,1.298656\C,0,-2.121889445,-0.918337302,-0.967112723\H,0,-3.39
 229932,-0.247402335,0.596496855\H,0,-2.419176945,-1.669900059,1.004436
 439\H,0,-1.526304416,0.239474424,2.221387894\H,0,-1.503902114,0.960750
 702,-1.170400229\H,0,-0.410560182,1.997532273,0.666150752\H,0,1.924402
 159,-0.039925506,1.230818645\N,0,-1.700457396,0.069239192,-1.694919761
 \O,0,-2.336854815,-2.071648312,-1.575178364\H,0,-2.071900591,2.1285565
 43,0.807834339\H,0,-1.514408501,-0.054510917,-2.685235696\\Version=ES6
 4L-G09RevD.01\State=1-A\HF=-532.7841049\RMSD=5.312e-09\Dipole=-2.04131
 56,0.0723732,-0.0991618\Quadrupole=6.0549459,0.422679,-6.4776249,4.820
 5851,1.9369762,-0.2217627\PG=C01 [X(C5H13N2O3)]\\@


 In the beginning there was nothing, which exploded.
 Job cpu time:       0 days  0 hours  1 minutes  5.7 seconds.
 File lengths (MBytes):  RWF=      7 Int=      0 D2E=      0 Chk=      2 Scr=      1
 Normal termination of Gaussian 09 at Thu Mar 12 19:36:53 2020.
